Title: parameter sweep
Date: Fri Jul 21 12:37:07  2023
Plotname: DC transfer characteristic
Flags: real
No. Variables: 2
No. Points: 11
Variables:
	0	v(v-sweep)	voltage
	1	v(2)	voltage
Values:
 0	0.000000000000000e+00
	0.000000000000000e+00

 1	1.000000000000000e-01
	5.000000000000000e-02

 2	2.000000000000000e-01
	1.000000000000000e-01

 3	3.000000000000000e-01
	1.500000000000000e-01

 4	4.000000000000000e-01
	2.000000000000000e-01

 5	5.000000000000000e-01
	2.500000000000000e-01

 6	6.000000000000000e-01
	3.000000000000000e-01

 7	7.000000000000000e-01
	3.500000000000000e-01

 8	7.999999999999999e-01
	4.000000000000000e-01

 9	8.999999999999999e-01
	4.500000000000000e-01

 10	9.999999999999999e-01
	4.999999999999999e-01

Title: parameter sweep
Date: Fri Jul 21 12:37:07  2023
Plotname: DC transfer characteristic
Flags: real
No. Variables: 2
No. Points: 11
Variables:
	0	v(v-sweep)	voltage
	1	v(2)	voltage
Values:
 0	0.000000000000000e+00
	0.000000000000000e+00

 1	1.000000000000000e-01
	3.333333333333333e-02

 2	2.000000000000000e-01
	6.666666666666667e-02

 3	3.000000000000000e-01
	1.000000000000000e-01

 4	4.000000000000000e-01
	1.333333333333333e-01

 5	5.000000000000000e-01
	1.666666666666667e-01

 6	6.000000000000000e-01
	2.000000000000000e-01

 7	7.000000000000000e-01
	2.333333333333333e-01

 8	7.999999999999999e-01
	2.666666666666666e-01

 9	8.999999999999999e-01
	3.000000000000000e-01

 10	9.999999999999999e-01
	3.333333333333333e-01

Title: parameter sweep
Date: Fri Jul 21 12:37:07  2023
Plotname: DC transfer characteristic
Flags: real
No. Variables: 2
No. Points: 11
Variables:
	0	v(v-sweep)	voltage
	1	v(2)	voltage
Values:
 0	0.000000000000000e+00
	0.000000000000000e+00

 1	1.000000000000000e-01
	2.500000000000000e-02

 2	2.000000000000000e-01
	5.000000000000000e-02

 3	3.000000000000000e-01
	7.500000000000000e-02

 4	4.000000000000000e-01
	1.000000000000000e-01

 5	5.000000000000000e-01
	1.250000000000000e-01

 6	6.000000000000000e-01
	1.500000000000000e-01

 7	7.000000000000000e-01
	1.750000000000000e-01

 8	7.999999999999999e-01
	2.000000000000000e-01

 9	8.999999999999999e-01
	2.250000000000000e-01

 10	9.999999999999999e-01
	2.499999999999999e-01

Title: parameter sweep
Date: Fri Jul 21 12:37:07  2023
Plotname: DC transfer characteristic
Flags: real
No. Variables: 2
No. Points: 11
Variables:
	0	v(v-sweep)	voltage
	1	v(2)	voltage
Values:
 0	0.000000000000000e+00
	0.000000000000000e+00

 1	1.000000000000000e-01
	2.000000000000000e-02

 2	2.000000000000000e-01
	4.000000000000000e-02

 3	3.000000000000000e-01
	6.000000000000000e-02

 4	4.000000000000000e-01
	8.000000000000000e-02

 5	5.000000000000000e-01
	1.000000000000000e-01

 6	6.000000000000000e-01
	1.200000000000000e-01

 7	7.000000000000000e-01
	1.400000000000000e-01

 8	7.999999999999999e-01
	1.600000000000000e-01

 9	8.999999999999999e-01
	1.800000000000000e-01

 10	9.999999999999999e-01
	2.000000000000000e-01

Title: parameter sweep
Date: Fri Jul 21 12:37:07  2023
Plotname: DC transfer characteristic
Flags: real
No. Variables: 2
No. Points: 11
Variables:
	0	v(v-sweep)	voltage
	1	v(2)	voltage
Values:
 0	0.000000000000000e+00
	0.000000000000000e+00

 1	1.000000000000000e-01
	1.666666666666667e-02

 2	2.000000000000000e-01
	3.333333333333333e-02

 3	3.000000000000000e-01
	5.000000000000001e-02

 4	4.000000000000000e-01
	6.666666666666667e-02

 5	5.000000000000000e-01
	8.333333333333333e-02

 6	6.000000000000000e-01
	9.999999999999999e-02

 7	7.000000000000000e-01
	1.166666666666666e-01

 8	7.999999999999999e-01
	1.333333333333333e-01

 9	8.999999999999999e-01
	1.500000000000000e-01

 10	9.999999999999999e-01
	1.666666666666666e-01

Title: parameter sweep
Date: Fri Jul 21 12:37:07  2023
Plotname: DC transfer characteristic
Flags: real
No. Variables: 2
No. Points: 11
Variables:
	0	v(v-sweep)	voltage
	1	v(2)	voltage
Values:
 0	0.000000000000000e+00
	0.000000000000000e+00

 1	1.000000000000000e-01
	1.428571428571429e-02

 2	2.000000000000000e-01
	2.857142857142857e-02

 3	3.000000000000000e-01
	4.285714285714286e-02

 4	4.000000000000000e-01
	5.714285714285714e-02

 5	5.000000000000000e-01
	7.142857142857142e-02

 6	6.000000000000000e-01
	8.571428571428570e-02

 7	7.000000000000000e-01
	9.999999999999998e-02

 8	7.999999999999999e-01
	1.142857142857143e-01

 9	8.999999999999999e-01
	1.285714285714286e-01

 10	9.999999999999999e-01
	1.428571428571428e-01

Title: parameter sweep
Date: Fri Jul 21 12:37:07  2023
Plotname: DC transfer characteristic
Flags: real
No. Variables: 2
No. Points: 11
Variables:
	0	v(v-sweep)	voltage
	1	v(2)	voltage
Values:
 0	0.000000000000000e+00
	0.000000000000000e+00

 1	1.000000000000000e-01
	1.250000000000000e-02

 2	2.000000000000000e-01
	2.500000000000000e-02

 3	3.000000000000000e-01
	3.750000000000001e-02

 4	4.000000000000000e-01
	5.000000000000000e-02

 5	5.000000000000000e-01
	6.250000000000000e-02

 6	6.000000000000000e-01
	7.499999999999998e-02

 7	7.000000000000000e-01
	8.749999999999999e-02

 8	7.999999999999999e-01
	9.999999999999999e-02

 9	8.999999999999999e-01
	1.125000000000000e-01

 10	9.999999999999999e-01
	1.250000000000000e-01

Title: parameter sweep
Date: Fri Jul 21 12:37:07  2023
Plotname: DC transfer characteristic
Flags: real
No. Variables: 2
No. Points: 11
Variables:
	0	v(v-sweep)	voltage
	1	v(2)	voltage
Values:
 0	0.000000000000000e+00
	0.000000000000000e+00

 1	1.000000000000000e-01
	1.111111111111111e-02

 2	2.000000000000000e-01
	2.222222222222222e-02

 3	3.000000000000000e-01
	3.333333333333333e-02

 4	4.000000000000000e-01
	4.444444444444444e-02

 5	5.000000000000000e-01
	5.555555555555555e-02

 6	6.000000000000000e-01
	6.666666666666665e-02

 7	7.000000000000000e-01
	7.777777777777777e-02

 8	7.999999999999999e-01
	8.888888888888888e-02

 9	8.999999999999999e-01
	9.999999999999999e-02

 10	9.999999999999999e-01
	1.111111111111111e-01

Title: parameter sweep
Date: Fri Jul 21 12:37:07  2023
Plotname: DC transfer characteristic
Flags: real
No. Variables: 2
No. Points: 11
Variables:
	0	v(v-sweep)	voltage
	1	v(2)	voltage
Values:
 0	0.000000000000000e+00
	0.000000000000000e+00

 1	1.000000000000000e-01
	1.000000000000000e-02

 2	2.000000000000000e-01
	2.000000000000000e-02

 3	3.000000000000000e-01
	3.000000000000001e-02

 4	4.000000000000000e-01
	4.000000000000000e-02

 5	5.000000000000000e-01
	5.000000000000000e-02

 6	6.000000000000000e-01
	6.000000000000000e-02

 7	7.000000000000000e-01
	7.000000000000001e-02

 8	7.999999999999999e-01
	7.999999999999999e-02

 9	8.999999999999999e-01
	9.000000000000000e-02

 10	9.999999999999999e-01
	9.999999999999999e-02

Title: parameter sweep
Date: Fri Jul 21 12:37:07  2023
Plotname: DC transfer characteristic
Flags: real
No. Variables: 2
No. Points: 11
Variables:
	0	v(v-sweep)	voltage
	1	v(2)	voltage
Values:
 0	0.000000000000000e+00
	0.000000000000000e+00

 1	1.000000000000000e-01
	9.090909090909090e-03

 2	2.000000000000000e-01
	1.818181818181818e-02

 3	3.000000000000000e-01
	2.727272727272728e-02

 4	4.000000000000000e-01
	3.636363636363636e-02

 5	5.000000000000000e-01
	4.545454545454546e-02

 6	6.000000000000000e-01
	5.454545454545454e-02

 7	7.000000000000000e-01
	6.363636363636363e-02

 8	7.999999999999999e-01
	7.272727272727271e-02

 9	8.999999999999999e-01
	8.181818181818180e-02

 10	9.999999999999999e-01
	9.090909090909090e-02

