Title: * spice3 file created from 6_bit_dac.ext - technology: sky130a
Date: Sun Jul  9 14:05:10  2023
Plotname: Transient Analysis
Flags: real
No. Variables: 3
No. Points: 2471
Variables:
	0	time	time
	1	v(d0)	voltage
	2	v(vout)	voltage
Values:
 0	1.000000000000000e-11
	0.000000000000000e+00
	1.609793094066015e+00

 1	1.028000000458641e-11
	0.000000000000000e+00
	1.620440754754525e+00

 2	1.084000001375921e-11
	0.000000000000000e+00
	1.636976028384105e+00

 3	1.196000003210483e-11
	0.000000000000000e+00
	1.653118639572112e+00

 4	1.420000006879607e-11
	0.000000000000000e+00
	1.662532935915708e+00

 5	1.868000014217854e-11
	0.000000000000000e+00
	1.672668239516640e+00

 6	2.764000028894349e-11
	0.000000000000000e+00
	1.703107535843153e+00

 7	4.556000058247339e-11
	0.000000000000000e+00
	1.755330073256711e+00

 8	8.140000116953319e-11
	0.000000000000000e+00
	1.813894676991946e+00

 9	1.454249132452396e-10
	0.000000000000000e+00
	1.767890109177474e+00

 10	2.276813760381282e-10
	0.000000000000000e+00
	1.645482645445927e+00

 11	3.553591468022453e-10
	0.000000000000000e+00
	1.495488778966576e+00

 12	5.265581675130224e-10
	0.000000000000000e+00
	1.157721630329985e+00

 13	7.223967910794184e-10
	0.000000000000000e+00
	7.678252566483198e-01

 14	1.000000000000000e-09
	0.000000000000000e+00
	4.228079215657874e-01

 15	1.028075244565506e-09
	0.000000000000000e+00
	3.984769392785899e-01

 16	1.084225733696519e-09
	0.000000000000000e+00
	3.527347101801415e-01

 17	1.196526711958546e-09
	0.000000000000000e+00
	2.756187967145722e-01

 18	1.421128668482597e-09
	0.000000000000000e+00
	1.654519391770477e-01

 19	1.870332581530701e-09
	0.000000000000000e+00
	5.375942751677983e-02

 20	2.768740407626909e-09
	0.000000000000000e+00
	-1.318726798521670e-03

 21	3.768740407626909e-09
	0.000000000000000e+00
	2.954747067324254e-04

 22	4.000000000000000e-09
	0.000000000000000e+00
	4.408526613622519e-04

 23	4.000100000000000e-09
	1.799999999993108e-01
	4.416025943942065e-04

 24	4.000300000000000e-09
	5.399999999994213e-01
	4.430053080504221e-04

 25	4.000700000000000e-09
	1.259999999999642e+00
	4.459223029822821e-04

 26	4.001000000000001e-09
	1.800000000000000e+00
	4.482379451265465e-04

 27	4.001080000000000e-09
	1.800000000000000e+00
	4.483956252213134e-04

 28	4.001240000000000e-09
	1.800000000000000e+00
	4.486336561308634e-04

 29	4.001560000000000e-09
	1.800000000000000e+00
	4.488309908527406e-04

 30	4.002200000000001e-09
	1.800000000000000e+00
	4.490269191900030e-04

 31	4.003480000000001e-09
	1.800000000000000e+00
	4.505344402123918e-04

 32	4.005091356619010e-09
	1.800000000000000e+00
	4.543174411104686e-04

 33	4.008314069857029e-09
	1.800000000000000e+00
	4.650560437340477e-04

 34	4.014759496333067e-09
	1.800000000000000e+00
	4.967649754766967e-04

 35	4.027650349285143e-09
	1.800000000000000e+00
	5.889040216695330e-04

 36	4.053432055189294e-09
	1.800000000000000e+00
	7.251109147597034e-04

 37	4.104995466997597e-09
	1.800000000000000e+00
	1.531435223567229e-04

 38	4.208122290614202e-09
	1.800000000000000e+00
	-3.066862182503277e-03

 39	4.414375937847412e-09
	1.800000000000000e+00
	-8.853492861029051e-03

 40	4.783420487089274e-09
	1.800000000000000e+00
	1.056510896843633e-03

 41	5.144339135864740e-09
	1.800000000000000e+00
	3.207888458620518e-02

 42	5.536125343555401e-09
	1.800000000000000e+00
	5.623376778593932e-02

 43	5.873903611233688e-09
	1.800000000000000e+00
	6.287124622714631e-02

 44	6.225847694642172e-09
	1.800000000000000e+00
	6.592725981799946e-02

 45	6.551191274164658e-09
	1.800000000000000e+00
	6.500274306287036e-02

 46	6.916624255469890e-09
	1.800000000000000e+00
	6.588277197622583e-02

 47	7.264705450878980e-09
	1.800000000000000e+00
	6.744597609759458e-02

 48	7.585003175452723e-09
	1.800000000000000e+00
	6.657101707016538e-02

 49	7.911322744969994e-09
	1.800000000000000e+00
	6.590896154931247e-02

 50	8.000000000000000e-09
	1.800000000000000e+00
	6.593112626959247e-02

 51	8.000100000000001e-09
	1.800000000000000e+00
	6.593304940852129e-02

 52	8.000300000000000e-09
	1.800000000000000e+00
	6.593743175893571e-02

 53	8.000700000000000e-09
	1.800000000000000e+00
	6.594872719603638e-02

 54	8.001000000000000e-09
	1.800000000000000e+00
	6.595830588746650e-02

 55	8.001080000000001e-09
	1.656000000000254e+00
	6.595921838005975e-02

 56	8.001240000000000e-09
	1.368000000000761e+00
	6.596052981471622e-02

 57	8.001560000000000e-09
	7.920000000017753e-01
	6.596117342361903e-02

 58	8.001999999999999e-09
	2.425615264201042e-12
	6.596052012203384e-02

 59	8.002064000000000e-09
	0.000000000000000e+00
	6.596076041334421e-02

 60	8.002191999999999e-09
	0.000000000000000e+00
	6.596130249660188e-02

 61	8.002448000000000e-09
	0.000000000000000e+00
	6.596262997680062e-02

 62	8.002959999999999e-09
	0.000000000000000e+00
	6.596592225152417e-02

 63	8.003983999999998e-09
	0.000000000000000e+00
	6.597394874039660e-02

 64	8.005437331489932e-09
	0.000000000000000e+00
	6.598731062289520e-02

 65	8.008314273797149e-09
	0.000000000000000e+00
	6.601919292272397e-02

 66	8.014068158411581e-09
	0.000000000000000e+00
	6.610406661662714e-02

 67	8.025575927640444e-09
	0.000000000000000e+00
	6.633303071034984e-02

 68	8.048591466098173e-09
	0.000000000000000e+00
	6.679848074463855e-02

 69	8.094622543013631e-09
	0.000000000000000e+00
	6.710059999017554e-02

 70	8.186684696844547e-09
	0.000000000000000e+00
	6.396870876736502e-02

 71	8.342216453414170e-09
	0.000000000000000e+00
	4.662316216255618e-02

 72	8.509105312831084e-09
	0.000000000000000e+00
	3.183848647682851e-02

 73	8.670672413869979e-09
	0.000000000000000e+00
	4.538787177624811e-02

 74	8.857771282706127e-09
	0.000000000000000e+00
	7.572681179572530e-02

 75	9.023534343976879e-09
	0.000000000000000e+00
	8.835919100823617e-02

 76	9.208052909639034e-09
	0.000000000000000e+00
	9.381274497757197e-02

 77	9.391468746403420e-09
	0.000000000000000e+00
	1.007925853717681e-01

 78	9.594121419499083e-09
	0.000000000000000e+00
	1.027974081303265e-01

 79	9.782454721066534e-09
	0.000000000000000e+00
	1.035600561333300e-01

 80	9.964097459840813e-09
	0.000000000000000e+00
	1.082765281332604e-01

 81	1.015629859724401e-08
	0.000000000000000e+00
	1.107254084237695e-01

 82	1.031842670205377e-08
	0.000000000000000e+00
	1.096846106994079e-01

 83	1.050805757205132e-08
	0.000000000000000e+00
	1.096227520032982e-01

 84	1.071040720052746e-08
	0.000000000000000e+00
	1.112373382797823e-01

 85	1.090219800503509e-08
	0.000000000000000e+00
	1.106200279542534e-01

 86	1.111726196401274e-08
	0.000000000000000e+00
	1.100928890414028e-01

 87	1.131638260203038e-08
	0.000000000000000e+00
	1.107614071255574e-01

 88	1.152244618620348e-08
	0.000000000000000e+00
	1.109983602217538e-01

 89	1.169636554421833e-08
	0.000000000000000e+00
	1.113525862329177e-01

 90	1.189026040762638e-08
	0.000000000000000e+00
	1.111186073377494e-01

 91	1.200000000000000e-08
	2.977850205190900e-12
	1.108947529495723e-01

 92	1.200010000000000e-08
	1.800000000007997e-01
	1.108950580556380e-01

 93	1.200030000000000e-08
	5.400000000023991e-01
	1.108955981742616e-01

 94	1.200070000000000e-08
	1.259999999999642e+00
	1.108961986962766e-01

 95	1.200100000000000e-08
	1.799999999999063e+00
	1.108963246789256e-01

 96	1.200108000000000e-08
	1.800000000000000e+00
	1.108958810397981e-01

 97	1.200124000000000e-08
	1.800000000000000e+00
	1.108949066652407e-01

 98	1.200156000000000e-08
	1.800000000000000e+00
	1.108926229669672e-01

 99	1.200220000000000e-08
	1.800000000000000e+00
	1.108877850403814e-01

 100	1.200348000000000e-08
	1.800000000000000e+00
	1.108795496451053e-01

 101	1.200509133884967e-08
	1.800000000000000e+00
	1.108721938117496e-01

 102	1.200831401654900e-08
	1.800000000000000e+00
	1.108640135873126e-01

 103	1.201475937194767e-08
	1.800000000000000e+00
	1.108655123667404e-01

 104	1.202765008274501e-08
	1.800000000000000e+00
	1.109183948731875e-01

 105	1.205343150433968e-08
	1.800000000000000e+00
	1.110655303051170e-01

 106	1.210499434752903e-08
	1.800000000000000e+00
	1.106811387529648e-01

 107	1.220812003390772e-08
	1.800000000000000e+00
	1.073160580494021e-01

 108	1.232040925592667e-08
	1.800000000000000e+00
	1.028240516697282e-01

 109	1.245702461305904e-08
	1.800000000000000e+00
	9.916466851541257e-02

 110	1.264212061632284e-08
	1.800000000000000e+00
	9.828870989505994e-02

 111	1.281250980902817e-08
	1.800000000000000e+00
	1.058946156954377e-01

 112	1.301522003169623e-08
	1.800000000000000e+00
	1.245409557421606e-01

 113	1.321993714636740e-08
	1.800000000000000e+00
	1.418606369662612e-01

 114	1.339691404659944e-08
	1.800000000000000e+00
	1.528094960996586e-01

 115	1.358962940520649e-08
	1.800000000000000e+00
	1.617262553395012e-01

 116	1.376073669838483e-08
	1.800000000000000e+00
	1.660443901195068e-01

 117	1.394728329129199e-08
	1.800000000000000e+00
	1.698400629843035e-01

 118	1.414332376612997e-08
	1.800000000000000e+00
	1.723778246942145e-01

 119	1.434649530835296e-08
	1.800000000000000e+00
	1.721141578584964e-01

 120	1.455690294533034e-08
	1.800000000000000e+00
	1.718438959299956e-01

 121	1.473815798378700e-08
	1.800000000000000e+00
	1.733013400905217e-01

 122	1.494005049798214e-08
	1.800000000000000e+00
	1.749478126333281e-01

 123	1.511790054183539e-08
	1.800000000000000e+00
	1.748152441546426e-01

 124	1.530631789972634e-08
	1.800000000000000e+00
	1.740043383187433e-01

 125	1.550104173718122e-08
	1.800000000000000e+00
	1.734164309581263e-01

 126	1.568962428886262e-08
	1.800000000000000e+00
	1.728654765924603e-01

 127	1.589644365654405e-08
	1.800000000000000e+00
	1.724403957261507e-01

 128	1.600000000000000e-08
	1.800000000000000e+00
	1.722413146896313e-01

 129	1.600010000000000e-08
	1.800000000000000e+00
	1.722717929475035e-01

 130	1.600030000000000e-08
	1.800000000000000e+00
	1.723418661904441e-01

 131	1.600070000000000e-08
	1.800000000000000e+00
	1.725155202309937e-01

 132	1.600100000000000e-08
	1.800000000000000e+00
	1.726538669428025e-01

 133	1.600108000000000e-08
	1.656000000004720e+00
	1.726649842563312e-01

 134	1.600124000000000e-08
	1.368000000008206e+00
	1.726790480592184e-01

 135	1.600156000000000e-08
	7.920000000092198e-01
	1.726772566503051e-01

 136	1.600200000000000e-08
	9.368061881787071e-13
	1.726534625090796e-01

 137	1.600206400000000e-08
	0.000000000000000e+00
	1.726509626574398e-01

 138	1.600219200000000e-08
	0.000000000000000e+00
	1.726465399775866e-01

 139	1.600244800000000e-08
	0.000000000000000e+00
	1.726402388964992e-01

 140	1.600296000000000e-08
	0.000000000000000e+00
	1.726346421625654e-01

 141	1.600398400000000e-08
	0.000000000000000e+00
	1.726408471703401e-01

 142	1.600543848263077e-08
	0.000000000000000e+00
	1.726725573557687e-01

 143	1.600825229245855e-08
	0.000000000000000e+00
	1.727718343963644e-01

 144	1.601387991211409e-08
	0.000000000000000e+00
	1.730492197044021e-01

 145	1.602513515142518e-08
	0.000000000000000e+00
	1.737215312417766e-01

 146	1.604764563004735e-08
	0.000000000000000e+00
	1.750660970030676e-01

 147	1.609266658729171e-08
	0.000000000000000e+00
	1.780266485216932e-01

 148	1.618270850178041e-08
	0.000000000000000e+00
	1.769118693874116e-01

 149	1.631315411386240e-08
	0.000000000000000e+00
	1.395095464760731e-01

 150	1.644265192533592e-08
	0.000000000000000e+00
	9.095108346546434e-02

 151	1.661493330239606e-08
	0.000000000000000e+00
	9.304642226857136e-02

 152	1.677422865971546e-08
	0.000000000000000e+00
	1.422170096263931e-01

 153	1.695412940103548e-08
	0.000000000000000e+00
	1.779567553978576e-01

 154	1.713550641931689e-08
	0.000000000000000e+00
	1.843869425715892e-01

 155	1.735008888630296e-08
	0.000000000000000e+00
	1.897247479407120e-01

 156	1.755563019874709e-08
	0.000000000000000e+00
	2.006262300097170e-01

 157	1.774895681927258e-08
	0.000000000000000e+00
	2.017704548020319e-01

 158	1.792347631562535e-08
	0.000000000000000e+00
	2.003881654040386e-01

 159	1.811493407192076e-08
	0.000000000000000e+00
	2.015019464803489e-01

 160	1.831184157126041e-08
	0.000000000000000e+00
	2.037423751936901e-01

 161	1.849252100441214e-08
	0.000000000000000e+00
	2.047991876108085e-01

 162	1.869736078238449e-08
	0.000000000000000e+00
	2.029043458422995e-01

 163	1.891753998903802e-08
	0.000000000000000e+00
	2.039970799009274e-01

 164	1.911619011324516e-08
	0.000000000000000e+00
	2.046202638206960e-01

 165	1.930787655073242e-08
	0.000000000000000e+00
	2.053105308015644e-01

 166	1.950825490586286e-08
	0.000000000000000e+00
	2.051655799582815e-01

 167	1.968490144485649e-08
	0.000000000000000e+00
	2.057574977740035e-01

 168	1.987079343888376e-08
	0.000000000000000e+00
	2.059848967786985e-01

 169	2.000000000000000e-08
	0.000000000000000e+00
	2.065406907247362e-01

 170	2.000010000000000e-08
	1.799999999978218e-01
	2.065424434713557e-01

 171	2.000030000000000e-08
	5.399999999994213e-01
	2.065452230523808e-01

 172	2.000070000000000e-08
	1.260000000002620e+00
	2.065472061945524e-01

 173	2.000100000000000e-08
	1.800000000000000e+00
	2.065468210204663e-01

 174	2.000108000000000e-08
	1.800000000000000e+00
	2.065461111163628e-01

 175	2.000124000000000e-08
	1.800000000000000e+00
	2.065445386884900e-01

 176	2.000156000000000e-08
	1.800000000000000e+00
	2.065408117449239e-01

 177	2.000220000000000e-08
	1.800000000000000e+00
	2.065328772920073e-01

 178	2.000348000000000e-08
	1.800000000000000e+00
	2.065203365609614e-01

 179	2.000509132520270e-08
	1.800000000000000e+00
	2.065132176323556e-01

 180	2.000831397560811e-08
	1.800000000000000e+00
	2.065195138737272e-01

 181	2.001475927641891e-08
	1.800000000000000e+00
	2.065656867634021e-01

 182	2.002764987804051e-08
	1.800000000000000e+00
	2.066858824282553e-01

 183	2.005343108128371e-08
	1.800000000000000e+00
	2.069303175435186e-01

 184	2.010499348777011e-08
	1.800000000000000e+00
	2.072080744528855e-01

 185	2.020811830074292e-08
	1.800000000000000e+00
	2.066654587281791e-01

 186	2.032817579131926e-08
	1.800000000000000e+00
	2.052487805664327e-01

 187	2.046772676816834e-08
	1.800000000000000e+00
	2.040672647369374e-01

 188	2.061636688936027e-08
	1.800000000000000e+00
	2.044017927638338e-01

 189	2.079146772431524e-08
	1.800000000000000e+00
	2.071087854200147e-01

 190	2.098735729563771e-08
	1.800000000000000e+00
	2.048161083017834e-01

 191	2.116369581704295e-08
	1.800000000000000e+00
	1.928783968876545e-01

 192	2.132033264553756e-08
	1.800000000000000e+00
	1.915706539291662e-01

 193	2.150421818100834e-08
	1.800000000000000e+00
	2.157016731397427e-01

 194	2.169219047296025e-08
	1.800000000000000e+00
	2.413144457873177e-01

 195	2.191028513654152e-08
	1.800000000000000e+00
	2.550697558748560e-01

 196	2.211828469047630e-08
	1.800000000000000e+00
	2.632741200522188e-01

 197	2.230222959860554e-08
	1.800000000000000e+00
	2.684142166325078e-01

 198	2.250593349508301e-08
	1.800000000000000e+00
	2.727501824128530e-01

 199	2.268549100469168e-08
	1.800000000000000e+00
	2.749259400197279e-01

 200	2.287852770757566e-08
	1.800000000000000e+00
	2.746736176710659e-01

 201	2.307502639234938e-08
	1.800000000000000e+00
	2.752111975803967e-01

 202	2.326041993907286e-08
	1.800000000000000e+00
	2.772155863536334e-01

 203	2.347004170115391e-08
	1.800000000000000e+00
	2.790423487757860e-01

 204	2.367752284109196e-08
	1.800000000000000e+00
	2.789924446996137e-01

 205	2.389768160542235e-08
	1.800000000000000e+00
	2.785865411281370e-01

 206	2.400000000000000e-08
	1.800000000000000e+00
	2.785516435679953e-01

 207	2.400010000000000e-08
	1.800000000000000e+00
	2.785530535814734e-01

 208	2.400030000000000e-08
	1.800000000000000e+00
	2.785564646290699e-01

 209	2.400070000000000e-08
	1.800000000000000e+00
	2.785656777883571e-01

 210	2.400100000000000e-08
	1.800000000000000e+00
	2.785732108977145e-01

 211	2.400108000000000e-08
	1.656000000001743e+00
	2.785735125734825e-01

 212	2.400124000000000e-08
	1.368000000005228e+00
	2.785735920980752e-01

 213	2.400156000000000e-08
	7.920000000062422e-01
	2.785717686452848e-01

 214	2.400200000000000e-08
	0.000000000000000e+00
	2.785678459031997e-01

 215	2.400206400000000e-08
	0.000000000000000e+00
	2.785676243154735e-01

 216	2.400219200000000e-08
	0.000000000000000e+00
	2.785672418933313e-01

 217	2.400244800000000e-08
	0.000000000000000e+00
	2.785666988510297e-01

 218	2.400296000000000e-08
	0.000000000000000e+00
	2.785662163463166e-01

 219	2.400398400000000e-08
	0.000000000000000e+00
	2.785663440508310e-01

 220	2.400543733080643e-08
	0.000000000000000e+00
	2.785676033966518e-01

 221	2.400831428527689e-08
	0.000000000000000e+00
	2.785714432216280e-01

 222	2.401406819421782e-08
	0.000000000000000e+00
	2.785802066314214e-01

 223	2.402557601209967e-08
	0.000000000000000e+00
	2.785886794906225e-01

 224	2.404859164786337e-08
	0.000000000000000e+00
	2.785623331414763e-01

 225	2.409462291939077e-08
	0.000000000000000e+00
	2.785994432176944e-01

 226	2.418668546244558e-08
	0.000000000000000e+00
	2.791626019099757e-01

 227	2.435422781066405e-08
	0.000000000000000e+00
	2.769091103850717e-01

 228	2.450808015779476e-08
	0.000000000000000e+00
	2.747384455711457e-01

 229	2.467909141812449e-08
	0.000000000000000e+00
	2.685253287633107e-01

 230	2.491486714570438e-08
	0.000000000000000e+00
	2.496976078569249e-01

 231	2.510839276086463e-08
	0.000000000000000e+00
	2.609535799582629e-01

 232	2.531178460038822e-08
	0.000000000000000e+00
	2.887485676693635e-01

 233	2.548420206386100e-08
	0.000000000000000e+00
	2.931816544023311e-01

 234	2.568121858020536e-08
	0.000000000000000e+00
	2.962058392439459e-01

 235	2.585289198905191e-08
	0.000000000000000e+00
	3.018242633566356e-01

 236	2.604858674787108e-08
	0.000000000000000e+00
	3.020140184025392e-01

 237	2.624826722684600e-08
	0.000000000000000e+00
	3.049424414635237e-01

 238	2.646529293632619e-08
	0.000000000000000e+00
	3.100989583561747e-01

 239	2.667277283148648e-08
	0.000000000000000e+00
	3.095577920409701e-01

 240	2.686544414693015e-08
	0.000000000000000e+00
	3.091872914719878e-01

 241	2.706644151192254e-08
	0.000000000000000e+00
	3.107222249794457e-01

 242	2.723595995655821e-08
	0.000000000000000e+00
	3.103468641289381e-01

 243	2.742752478526635e-08
	0.000000000000000e+00
	3.101287840047289e-01

 244	2.759547065342442e-08
	0.000000000000000e+00
	3.105703742951705e-01

 245	2.778165347930626e-08
	0.000000000000000e+00
	3.110347857859786e-01

 246	2.800000000000000e-08
	0.000000000000000e+00
	3.114329729823835e-01

 247	2.800010000000000e-08
	1.799999999978218e-01
	3.114338443588452e-01

 248	2.800030000000000e-08
	5.399999999994213e-01
	3.114354350729749e-01

 249	2.800070000000000e-08
	1.260000000002620e+00
	3.114381821871821e-01

 250	2.800100000000000e-08
	1.800000000000000e+00
	3.114399467069329e-01

 251	2.800108000000000e-08
	1.800000000000000e+00
	3.114399247064618e-01

 252	2.800124000000000e-08
	1.800000000000000e+00
	3.114397973898644e-01

 253	2.800156000000000e-08
	1.800000000000000e+00
	3.114392205868913e-01

 254	2.800220000000001e-08
	1.800000000000000e+00
	3.114378862271400e-01

 255	2.800348000000001e-08
	1.800000000000000e+00
	3.114368718095992e-01

 256	2.800509139524001e-08
	1.800000000000000e+00
	3.114385724541242e-01

 257	2.800831418572002e-08
	1.800000000000000e+00
	3.114469402850880e-01

 258	2.801475976668004e-08
	1.800000000000000e+00
	3.114721152605530e-01

 259	2.802765092860007e-08
	1.800000000000000e+00
	3.115360096241511e-01

 260	2.805343325244013e-08
	1.800000000000000e+00
	3.116699837125845e-01

 261	2.810499790012026e-08
	1.800000000000000e+00
	3.117829670641825e-01

 262	2.820812719548052e-08
	1.800000000000000e+00
	3.113042957209375e-01

 263	2.831201764872647e-08
	1.800000000000000e+00
	3.101909098049789e-01

 264	2.846295120168438e-08
	1.800000000000000e+00
	3.089013654016421e-01

 265	2.862690045440960e-08
	1.800000000000000e+00
	3.089641505283108e-01

 266	2.880368555779166e-08
	1.800000000000000e+00
	3.110617041727133e-01

 267	2.900188492930100e-08
	1.800000000000000e+00
	3.074992180834721e-01

 268	2.918973798107713e-08
	1.800000000000000e+00
	2.964794263379227e-01

 269	2.935214526176868e-08
	1.800000000000000e+00
	2.996646488220817e-01

 270	2.953940412874439e-08
	1.800000000000000e+00
	3.251520152449990e-01

 271	2.973365935144852e-08
	1.800000000000000e+00
	3.478528290954325e-01

 272	2.992675800767271e-08
	1.800000000000000e+00
	3.592345128253800e-01

 273	3.013957222762207e-08
	1.800000000000000e+00
	3.694277358307667e-01

 274	3.032634087062946e-08
	1.800000000000000e+00
	3.757891570721150e-01

 275	3.052985318841369e-08
	1.800000000000000e+00
	3.807928097698541e-01

 276	3.070312499167781e-08
	1.800000000000000e+00
	3.829606919238994e-01

 277	3.089895297971966e-08
	1.800000000000000e+00
	3.829559349435720e-01

 278	3.109699240349709e-08
	1.800000000000000e+00
	3.837993116856032e-01

 279	3.127688917832949e-08
	1.800000000000000e+00
	3.854864209226810e-01

 280	3.148558479671387e-08
	1.800000000000000e+00
	3.867497986907463e-01

 281	3.168249765941503e-08
	1.800000000000000e+00
	3.866028408760641e-01

 282	3.189241711308551e-08
	1.800000000000000e+00
	3.862167490256416e-01

 283	3.200000000000000e-08
	1.800000000000000e+00
	3.861316294295676e-01

 284	3.200010000000000e-08
	1.800000000000000e+00
	3.862097506467955e-01

 285	3.200030000000000e-08
	1.800000000000000e+00
	3.863869281771339e-01

 286	3.200070000000000e-08
	1.800000000000000e+00
	3.868312530747796e-01

 287	3.200100000000000e-08
	1.800000000000000e+00
	3.871900617279305e-01

 288	3.200108000000000e-08
	1.656000000001743e+00
	3.871992161554190e-01

 289	3.200124000000000e-08
	1.368000000005228e+00
	3.871903584208774e-01

 290	3.200156000000000e-08
	7.920000000002865e-01
	3.870741190738781e-01

 291	3.200200000000000e-08
	0.000000000000000e+00
	3.868591098211714e-01

 292	3.200206400000000e-08
	0.000000000000000e+00
	3.868484629760228e-01

 293	3.200219200000001e-08
	0.000000000000000e+00
	3.868339440919633e-01

 294	3.200244800000001e-08
	0.000000000000000e+00
	3.868323627791052e-01

 295	3.200296000000001e-08
	0.000000000000000e+00
	3.868772083700350e-01

 296	3.200398400000001e-08
	0.000000000000000e+00
	3.870222136785494e-01

 297	3.200543890784479e-08
	0.000000000000000e+00
	3.872539737725871e-01

 298	3.200824433566996e-08
	0.000000000000000e+00
	3.877113516774169e-01

 299	3.201385519132031e-08
	0.000000000000000e+00
	3.885844365524366e-01

 300	3.202507690262099e-08
	0.000000000000000e+00
	3.899454991736097e-01

 301	3.204752032522237e-08
	0.000000000000000e+00
	3.916272030652093e-01

 302	3.209240717042512e-08
	0.000000000000000e+00
	3.944960733512021e-01

 303	3.218218086083062e-08
	0.000000000000000e+00
	3.812823096859826e-01

 304	3.231218008070007e-08
	0.000000000000000e+00
	2.991386268480210e-01

 305	3.243980150148309e-08
	0.000000000000000e+00
	2.149004185032269e-01

 306	3.258991150847337e-08
	0.000000000000000e+00
	1.891893961060539e-01

 307	3.274507578469603e-08
	0.000000000000000e+00
	2.557718611943249e-01

 308	3.290832185944463e-08
	0.000000000000000e+00
	3.615002161617048e-01

 309	3.308975168032868e-08
	0.000000000000000e+00
	4.170999633042450e-01

 310	3.327259955660971e-08
	0.000000000000000e+00
	4.259227988587468e-01

 311	3.344548361194903e-08
	0.000000000000000e+00
	4.133812126968676e-01

 312	3.362729427633012e-08
	0.000000000000000e+00
	3.989921749812531e-01

 313	3.383084392048117e-08
	0.000000000000000e+00
	4.001503058745529e-01

 314	3.401768157327232e-08
	0.000000000000000e+00
	3.961658625984280e-01

 315	3.423125197611929e-08
	0.000000000000000e+00
	3.918314387693423e-01

 316	3.442965881104431e-08
	0.000000000000000e+00
	3.904721773224936e-01

 317	3.463139298761385e-08
	0.000000000000000e+00
	3.911420818312379e-01

 318	3.481219001051551e-08
	0.000000000000000e+00
	3.937378511256578e-01

 319	3.500324245929257e-08
	0.000000000000000e+00
	3.936833953706064e-01

 320	3.517190404505673e-08
	0.000000000000000e+00
	3.943118620796983e-01

 321	3.535785478504710e-08
	0.000000000000000e+00
	3.945130843592354e-01

 322	3.555568740293404e-08
	0.000000000000000e+00
	3.953984612159546e-01

 323	3.575832960948815e-08
	0.000000000000000e+00
	3.964273662597002e-01

 324	3.598011831860002e-08
	0.000000000000000e+00
	3.979865707163681e-01

 325	3.600000000000000e-08
	0.000000000000000e+00
	3.980310604777779e-01

 326	3.600010000000000e-08
	1.799999999978218e-01
	3.980381124579375e-01

 327	3.600030000000000e-08
	5.399999999934655e-01
	3.980488867202657e-01

 328	3.600070000000000e-08
	1.259999999996664e+00
	3.980610235325880e-01

 329	3.600100000000001e-08
	1.800000000000000e+00
	3.980678888654011e-01

 330	3.600108000000000e-08
	1.800000000000000e+00
	3.980691280705979e-01

 331	3.600124000000000e-08
	1.800000000000000e+00
	3.980714873699096e-01

 332	3.600156000000001e-08
	1.800000000000000e+00
	3.980756518473011e-01

 333	3.600220000000000e-08
	1.800000000000000e+00
	3.980829185870838e-01

 334	3.600348000000001e-08
	1.800000000000000e+00
	3.980963938442293e-01

 335	3.600509163456620e-08
	1.800000000000000e+00
	3.981125726898923e-01

 336	3.600831490369860e-08
	1.800000000000000e+00
	3.981433546395730e-01

 337	3.601476144196338e-08
	1.800000000000000e+00
	3.982038123296178e-01

 338	3.602765451849296e-08
	1.800000000000000e+00
	3.983242607650877e-01

 339	3.605344067155211e-08
	1.800000000000000e+00
	3.985388494762021e-01

 340	3.610501297767040e-08
	1.800000000000000e+00
	3.988436987664638e-01

 341	3.620815758990698e-08
	1.800000000000000e+00
	3.990974399845639e-01

 342	3.632341457021212e-08
	1.800000000000000e+00
	3.990758414300973e-01

 343	3.645908377923431e-08
	1.800000000000000e+00
	3.989128401280006e-01

 344	3.659977547125811e-08
	1.800000000000000e+00
	3.994433484313110e-01

 345	3.676121812033823e-08
	1.800000000000000e+00
	4.015486235742122e-01

 346	3.694415066512122e-08
	1.800000000000000e+00
	4.038635284928246e-01

 347	3.711091087217582e-08
	1.800000000000000e+00
	4.032713631630995e-01

 348	3.727249101984247e-08
	1.800000000000000e+00
	4.033743509184418e-01

 349	3.745885752391647e-08
	1.800000000000000e+00
	4.006071730148593e-01

 350	3.765058391951008e-08
	1.800000000000000e+00
	3.900411928468576e-01

 351	3.782320967156897e-08
	1.800000000000000e+00
	3.946940475231715e-01

 352	3.801344796761896e-08
	1.800000000000000e+00
	4.221139093668111e-01

 353	3.818727952307819e-08
	1.800000000000000e+00
	4.442385571414490e-01

 354	3.837478979365912e-08
	1.800000000000000e+00
	4.582517154476115e-01

 355	3.856840990170587e-08
	1.800000000000000e+00
	4.684690607031526e-01

 356	3.875708215019673e-08
	1.800000000000000e+00
	4.747161284655579e-01

 357	3.896059515121927e-08
	1.800000000000000e+00
	4.795176312381200e-01

 358	3.913971435881758e-08
	1.800000000000000e+00
	4.815187794291708e-01

 359	3.933493328133606e-08
	1.800000000000000e+00
	4.818214762269619e-01

 360	3.954058618190161e-08
	1.800000000000000e+00
	4.833814733836344e-01

 361	3.973508278031028e-08
	1.800000000000000e+00
	4.861447776033941e-01

 362	3.993917862003961e-08
	1.800000000000000e+00
	4.885457465503005e-01

 363	4.000000000000000e-08
	1.800000000000000e+00
	4.889996738865525e-01

 364	4.000010000000000e-08
	1.800000000000000e+00
	4.890013790572185e-01

 365	4.000030000000000e-08
	1.800000000000000e+00
	4.890054943092361e-01

 366	4.000070000000000e-08
	1.800000000000000e+00
	4.890163996003296e-01

 367	4.000100000000000e-08
	1.800000000000000e+00
	4.890252565346109e-01

 368	4.000108000000000e-08
	1.656000000007698e+00
	4.890259770282475e-01

 369	4.000124000000000e-08
	1.368000000011183e+00
	4.890269122235456e-01

 370	4.000156000000000e-08
	7.920000000062422e-01
	4.890268925720420e-01

 371	4.000200000000001e-08
	0.000000000000000e+00
	4.890256070068834e-01

 372	4.000206400000001e-08
	0.000000000000000e+00
	4.890257784890606e-01

 373	4.000219200000001e-08
	0.000000000000000e+00
	4.890261879372189e-01

 374	4.000244800000001e-08
	0.000000000000000e+00
	4.890272729486222e-01

 375	4.000296000000001e-08
	0.000000000000000e+00
	4.890300869972900e-01

 376	4.000398400000001e-08
	0.000000000000000e+00
	4.890368986353542e-01

 377	4.000543733282072e-08
	0.000000000000000e+00
	4.890476853148709e-01

 378	4.000831429375456e-08
	0.000000000000000e+00
	4.890699609267501e-01

 379	4.001406821562225e-08
	0.000000000000000e+00
	4.891141329428471e-01

 380	4.002557605935762e-08
	0.000000000000000e+00
	4.891910746726135e-01

 381	4.004859174682838e-08
	0.000000000000000e+00
	4.892872808091805e-01

 382	4.009462312176988e-08
	0.000000000000000e+00
	4.894022233146784e-01

 383	4.018668587165288e-08
	0.000000000000000e+00
	4.896518388452377e-01

 384	4.033113785749370e-08
	0.000000000000000e+00
	4.887037932989490e-01

 385	4.049279071293200e-08
	0.000000000000000e+00
	4.865861538121382e-01

 386	4.065437224649370e-08
	0.000000000000000e+00
	4.867923312630348e-01

 387	4.089589486630054e-08
	0.000000000000000e+00
	4.845297452219441e-01

 388	4.108508300118500e-08
	0.000000000000000e+00
	4.623703114302441e-01

 389	4.128489115088188e-08
	0.000000000000000e+00
	4.409590290753804e-01

 390	4.145277467834239e-08
	0.000000000000000e+00
	4.570678832928495e-01

 391	4.165084763368490e-08
	0.000000000000000e+00
	4.817869914929566e-01

 392	4.183409654979142e-08
	0.000000000000000e+00
	4.890003963398085e-01

 393	4.203483389901518e-08
	0.000000000000000e+00
	4.952774734844559e-01

 394	4.224342715469961e-08
	0.000000000000000e+00
	4.974153222178098e-01

 395	4.246812047026149e-08
	0.000000000000000e+00
	5.000146012540599e-01

 396	4.267081003267185e-08
	0.000000000000000e+00
	5.059625096108787e-01

 397	4.285977932524906e-08
	0.000000000000000e+00
	5.101531478887111e-01

 398	4.306037185042901e-08
	0.000000000000000e+00
	5.107596437353347e-01

 399	4.322939433160819e-08
	0.000000000000000e+00
	5.097823325827865e-01

 400	4.341976036192941e-08
	0.000000000000000e+00
	5.098045261464019e-01

 401	4.358788215586407e-08
	0.000000000000000e+00
	5.096974640821492e-01

 402	4.377544441666720e-08
	0.000000000000000e+00
	5.103599993127713e-01

 403	4.400000000000000e-08