Title: ** sch_path: /foss/designs/sample&hold/schematic/working/sample_hold_tb.sch
Date: Fri Jul 21 20:07:07  2023
Plotname: Transient Analysis
Flags: real
No. Variables: 4
No. Points: 10258
Variables:
	0	time	time
	1	v(vout)	voltage
	2	v(vin)	voltage
	3	v(clk)	voltage
Values:
 0	0.000000000000000e+00
	5.862470332246539e-03
	1.650000000000000e+00
	3.300000000000000e+00

 1	1.000000000000000e-12
	5.862470393122671e-03
	1.650000103672558e+00
	3.300000000000000e+00

 2	2.000000000000000e-12
	5.862470440188762e-03
	1.650000207345115e+00
	3.300000000000000e+00

 3	4.000000000000001e-12
	5.862470531972122e-03
	1.650000414690231e+00
	3.300000000000000e+00

 4	8.000000000000001e-12
	5.862470703577815e-03
	1.650000829380461e+00
	3.300000000000000e+00

 5	1.600000000000000e-11
	5.862471008881607e-03
	1.650001658760921e+00
	3.300000000000000e+00

 6	3.200000000000001e-11
	5.862471496539501e-03
	1.650003317521842e+00
	3.300000000000000e+00

 7	6.400000000000001e-11
	5.862472132048368e-03
	1.650006635043684e+00
	3.300000000000000e+00

 8	1.280000000000000e-10
	5.862472686953196e-03
	1.650013270087369e+00
	3.300000000000000e+00

 9	2.280000000000000e-10
	5.862472868318532e-03
	1.650023637343125e+00
	3.300000000000000e+00

 10	3.280000000000001e-10
	5.862472876075336e-03
	1.650034004598880e+00
	3.300000000000000e+00

 11	4.280000000000001e-10
	5.862472877376399e-03
	1.650044371854634e+00
	3.300000000000000e+00

 12	5.280000000000000e-10
	5.862472877614390e-03
	1.650054739110386e+00
	3.300000000000000e+00

 13	6.280000000000000e-10
	5.862472878239920e-03
	1.650065106366136e+00
	3.300000000000000e+00

 14	7.280000000000000e-10
	5.862472878420889e-03
	1.650075473621884e+00
	3.300000000000000e+00

 15	8.279999999999999e-10
	5.862472878997918e-03
	1.650085840877628e+00
	3.300000000000000e+00

 16	9.279999999999999e-10
	5.862472879167794e-03
	1.650096208133369e+00
	3.300000000000000e+00

 17	1.028000000000000e-09
	5.862472879769807e-03
	1.650106575389106e+00
	3.300000000000000e+00

 18	1.128000000000000e-09
	5.862472879967670e-03
	1.650116942644839e+00
	3.300000000000000e+00

 19	1.228000000000000e-09
	5.862472880585277e-03
	1.650127309900568e+00
	3.300000000000000e+00

 20	1.328000000000000e-09
	5.862472880761973e-03
	1.650137677156291e+00
	3.300000000000000e+00

 21	1.428000000000000e-09
	5.862472881353871e-03
	1.650148044412009e+00
	3.300000000000000e+00

 22	1.528000000000000e-09
	5.862472881530685e-03
	1.650158411667721e+00
	3.300000000000000e+00

 23	1.628000000000000e-09
	5.862472882130362e-03
	1.650168778923427e+00
	3.300000000000000e+00

 24	1.728000000000000e-09
	5.862472882337381e-03
	1.650179146179126e+00
	3.300000000000000e+00

 25	1.828000000000001e-09
	5.862472882950378e-03
	1.650189513434819e+00
	3.300000000000000e+00

 26	1.928000000000000e-09
	5.862472883155587e-03
	1.650199880690503e+00
	3.300000000000000e+00

 27	2.028000000000000e-09
	5.862472883771957e-03
	1.650210247946180e+00
	3.300000000000000e+00

 28	2.128000000000001e-09
	5.862472883978931e-03
	1.650220615201849e+00
	3.300000000000000e+00

 29	2.228000000000001e-09
	5.862472884574040e-03
	1.650230982457508e+00
	3.300000000000000e+00

 30	2.328000000000001e-09
	5.862472884770590e-03
	1.650241349713159e+00
	3.300000000000000e+00

 31	2.428000000000001e-09
	5.862472885372201e-03
	1.650251716968800e+00
	3.300000000000000e+00

 32	2.528000000000001e-09
	5.862472885600260e-03
	1.650262084224431e+00
	3.300000000000000e+00

 33	2.628000000000001e-09
	5.862472886214937e-03
	1.650272451480052e+00
	3.300000000000000e+00

 34	2.728000000000001e-09
	5.862472886423380e-03
	1.650282818735662e+00
	3.300000000000000e+00

 35	2.828000000000001e-09
	5.862472887038513e-03
	1.650293185991261e+00
	3.300000000000000e+00

 36	2.928000000000001e-09
	5.862472887263890e-03
	1.650303553246848e+00
	3.300000000000000e+00

 37	3.028000000000001e-09
	5.862472887865088e-03
	1.650313920502424e+00
	3.300000000000000e+00

 38	3.128000000000001e-09
	5.862472888074026e-03
	1.650324287757987e+00
	3.300000000000000e+00

 39	3.228000000000001e-09
	5.862472888682579e-03
	1.650334655013537e+00
	3.300000000000000e+00

 40	3.328000000000001e-09
	5.862472888929225e-03
	1.650345022269074e+00
	3.300000000000000e+00

 41	3.428000000000001e-09
	5.862472889541827e-03
	1.650355389524597e+00
	3.300000000000000e+00

 42	3.528000000000001e-09
	5.862472889771081e-03
	1.650365756780106e+00
	3.300000000000000e+00

 43	3.628000000000002e-09
	5.862472890398797e-03
	1.650376124035601e+00
	3.300000000000000e+00

 44	3.728000000000001e-09
	5.862472890631753e-03
	1.650386491291081e+00
	3.300000000000000e+00

 45	3.828000000000001e-09
	5.862472891226890e-03
	1.650396858546546e+00
	3.300000000000000e+00

 46	3.928000000000001e-09
	5.862472891464172e-03
	1.650407225801995e+00
	3.300000000000000e+00

 47	4.028000000000001e-09
	5.862472892090279e-03
	1.650417593057428e+00
	3.300000000000000e+00

 48	4.128000000000001e-09
	5.862472892337220e-03
	1.650427960312844e+00
	3.300000000000000e+00

 49	4.228000000000002e-09
	5.862472892948569e-03
	1.650438327568244e+00
	3.300000000000000e+00

 50	4.328000000000002e-09
	5.862472893184555e-03
	1.650448694823626e+00
	3.300000000000000e+00

 51	4.428000000000002e-09
	5.862472893806909e-03
	1.650459062078991e+00
	3.300000000000000e+00

 52	4.528000000000002e-09
	5.862472894063213e-03
	1.650469429334337e+00
	3.300000000000000e+00

 53	4.628000000000002e-09
	5.862472894678729e-03
	1.650479796589665e+00
	3.300000000000000e+00

 54	4.728000000000002e-09
	5.862472894926404e-03
	1.650490163844974e+00
	3.300000000000000e+00

 55	4.828000000000002e-09
	5.862472895545718e-03
	1.650500531100264e+00
	3.300000000000000e+00

 56	4.928000000000002e-09
	5.862472895824073e-03
	1.650510898355534e+00
	3.300000000000000e+00

 57	5.028000000000002e-09
	5.862472896453017e-03
	1.650521265610783e+00
	3.300000000000000e+00

 58	5.128000000000002e-09
	5.862472896707271e-03
	1.650531632866013e+00
	3.300000000000000e+00

 59	5.228000000000002e-09
	5.862472897319180e-03
	1.650542000121221e+00
	3.300000000000000e+00

 60	5.328000000000002e-09
	5.862472897582787e-03
	1.650552367376408e+00
	3.300000000000000e+00

 61	5.428000000000002e-09
	5.862472898191201e-03
	1.650562734631573e+00
	3.300000000000000e+00

 62	5.528000000000002e-09
	5.862472898464812e-03
	1.650573101886715e+00
	3.300000000000000e+00

 63	5.628000000000002e-09
	5.862472899087340e-03
	1.650583469141836e+00
	3.300000000000000e+00

 64	5.728000000000003e-09
	5.862472899356810e-03
	1.650593836396933e+00
	3.300000000000000e+00

 65	5.828000000000003e-09
	5.862472899992158e-03
	1.650604203652006e+00
	3.300000000000000e+00

 66	5.928000000000003e-09
	5.862472900253764e-03
	1.650614570907056e+00
	3.300000000000000e+00

 67	6.028000000000003e-09
	5.862472900880902e-03
	1.650624938162081e+00
	3.300000000000000e+00

 68	6.128000000000003e-09
	5.862472901165115e-03
	1.650635305417082e+00
	3.300000000000000e+00

 69	6.228000000000003e-09
	5.862472901799427e-03
	1.650645672672058e+00
	3.300000000000000e+00

 70	6.328000000000003e-09
	5.862472902084713e-03
	1.650656039927008e+00
	3.300000000000000e+00

 71	6.428000000000003e-09
	5.862472902706244e-03
	1.650666407181933e+00
	3.300000000000000e+00

 72	6.528000000000003e-09
	5.862472902987849e-03
	1.650676774436831e+00
	3.300000000000000e+00

 73	6.628000000000003e-09
	5.862472903614090e-03
	1.650687141691702e+00
	3.300000000000000e+00

 74	6.728000000000003e-09
	5.862472903902823e-03
	1.650697508946546e+00
	3.300000000000000e+00

 75	6.828000000000003e-09
	5.862472904529519e-03
	1.650707876201363e+00
	3.300000000000000e+00

 76	6.928000000000003e-09
	5.862472904823049e-03
	1.650718243456152e+00
	3.300000000000000e+00

 77	7.028000000000003e-09
	5.862472905455126e-03
	1.650728610710912e+00
	3.300000000000000e+00

 78	7.128000000000004e-09
	5.862472905748933e-03
	1.650738977965644e+00
	3.300000000000000e+00

 79	7.228000000000004e-09
	5.862472906398406e-03
	1.650749345220346e+00
	3.300000000000000e+00

 80	7.328000000000004e-09
	5.862472906702824e-03
	1.650759712475019e+00
	3.300000000000000e+00

 81	7.428000000000004e-09
	5.862472907330583e-03
	1.650770079729662e+00
	3.300000000000000e+00

 82	7.528000000000003e-09
	5.862472907640592e-03
	1.650780446984274e+00
	3.300000000000000e+00

 83	7.628000000000002e-09
	5.862472908271365e-03
	1.650790814238856e+00
	3.300000000000000e+00

 84	7.728000000000001e-09
	5.862472908579428e-03
	1.650801181493406e+00
	3.300000000000000e+00

 85	7.828000000000001e-09
	5.862472909216394e-03
	1.650811548747925e+00
	3.300000000000000e+00

 86	7.928000000000000e-09
	5.862472909526737e-03
	1.650821916002412e+00
	3.300000000000000e+00

 87	8.027999999999999e-09
	5.862472910171279e-03
	1.650832283256866e+00
	3.300000000000000e+00

 88	8.127999999999998e-09
	5.862472910483994e-03
	1.650842650511288e+00
	3.300000000000000e+00

 89	8.227999999999998e-09
	5.862472911124986e-03
	1.650853017765676e+00
	3.300000000000000e+00

 90	8.327999999999997e-09
	5.862472911447456e-03
	1.650863385020030e+00
	3.300000000000000e+00

 91	8.427999999999996e-09
	5.862472912089319e-03
	1.650873752274351e+00
	3.300000000000000e+00

 92	8.527999999999995e-09
	5.862472912417322e-03
	1.650884119528637e+00
	3.300000000000000e+00

 93	8.627999999999995e-09
	5.862472913068763e-03
	1.650894486782888e+00
	3.300000000000000e+00

 94	8.727999999999994e-09
	5.862472913380076e-03
	1.650904854037104e+00
	3.300000000000000e+00

 95	8.827999999999993e-09
	5.862472914009397e-03
	1.650915221291284e+00
	3.300000000000000e+00

 96	8.927999999999992e-09
	5.862472914342470e-03
	1.650925588545427e+00
	3.300000000000000e+00

 97	9.027999999999992e-09
	5.862472914994274e-03
	1.650935955799535e+00
	3.300000000000000e+00

 98	9.127999999999991e-09
	5.862472915324851e-03
	1.650946323053605e+00
	3.300000000000000e+00

 99	9.227999999999990e-09
	5.862472915973789e-03
	1.650956690307638e+00
	3.300000000000000e+00

 100	9.327999999999989e-09
	5.862472916307824e-03
	1.650967057561634e+00
	3.300000000000000e+00

 101	9.427999999999989e-09
	5.862472916959568e-03
	1.650977424815590e+00
	3.300000000000000e+00

 102	9.527999999999988e-09
	5.862472917307071e-03
	1.650987792069509e+00
	3.300000000000000e+00

 103	9.627999999999987e-09
	5.862472917960530e-03
	1.650998159323388e+00
	3.300000000000000e+00

 104	9.727999999999986e-09
	5.862472918293882e-03
	1.651008526577229e+00
	3.300000000000000e+00

 105	9.827999999999986e-09
	5.862472918934190e-03
	1.651018893831029e+00
	3.300000000000000e+00

 106	9.927999999999985e-09
	5.862472919268473e-03
	1.651029261084789e+00
	3.300000000000000e+00

 107	1.000000000000000e-08
	5.862472919785483e-03
	1.651036725507471e+00
	3.300000000000000e+00

 108	1.000100000000000e-08
	5.846680925162928e-03
	1.651036829180008e+00
	2.970000000000172e+00

 109	1.000300000000000e-08
	5.813390677983771e-03
	1.651037036525082e+00
	2.309999999999969e+00

 110	1.000700000000000e-08
	5.730523975701431e-03
	1.651037451215231e+00
	9.900000000001103e-01

 111	1.001000000000000e-08
	5.667455699245903e-03
	1.651037762232842e+00
	7.949196856316121e-14

 112	1.001080000000000e-08
	5.661501325366090e-03
	1.651037845170871e+00
	0.000000000000000e+00

 113	1.001240000000000e-08
	5.650212509509509e-03
	1.651038011046931e+00
	0.000000000000000e+00

 114	1.001560000000000e-08
	5.642299176076528e-03
	1.651038342799049e+00
	0.000000000000000e+00

 115	1.002200000000000e-08
	5.653943212059066e-03
	1.651039006303286e+00
	0.000000000000000e+00

 116	1.003480000000000e-08
	5.694622678791677e-03
	1.651040333311760e+00
	0.000000000000000e+00

 117	1.006018127741242e-08
	5.741763724441819e-03
	1.651042964653179e+00
	0.000000000000000e+00

 118	1.009939231021998e-08
	5.809843566673197e-03
	1.651047029760420e+00
	0.000000000000000e+00

 119	1.014039750369374e-08
	6.155294587145435e-03
	1.651051280872841e+00
	0.000000000000000e+00

 120	1.018443595344180e-08
	6.778243589228145e-03
	1.651055846450628e+00
	0.000000000000000e+00

 121	1.025094183821280e-08
	9.495143615837753e-03
	1.651062741284374e+00
	0.000000000000000e+00

 122	1.032767604714321e-08
	2.328572404404816e-02
	1.651070696514404e+00
	0.000000000000000e+00

 123	1.040865823246981e-08
	5.870121365742906e-02
	1.651079092142893e+00
	0.000000000000000e+00

 124	1.049123541234233e-08
	1.212261489331821e-01
	1.651087653128482e+00
	0.000000000000000e+00

 125	1.057885941473172e-08
	2.199784343505771e-01
	1.651096737330924e+00
	0.000000000000000e+00

 126	1.066555814409321e-08
	3.376797437213441e-01
	1.651105725607933e+00
	0.000000000000000e+00

 127	1.076555814409321e-08
	4.764243836983296e-01
	1.651116092861340e+00
	0.000000000000000e+00

 128	1.086555814409321e-08
	6.087396100374042e-01
	1.651126460114703e+00
	0.000000000000000e+00

 129	1.096555814409321e-08
	7.295152143999195e-01
	1.651136827368022e+00
	0.000000000000000e+00

 130	1.106555814409321e-08
	8.383540798274780e-01
	1.651147194621295e+00
	0.000000000000000e+00

 131	1.116555814409321e-08
	9.358805067154221e-01
	1.651157561874524e+00
	0.000000000000000e+00

 132	1.126555814409321e-08
	1.022931348987303e+00
	1.651167929127706e+00
	0.000000000000000e+00

 133	1.136555814409321e-08
	1.100377422509330e+00
	1.651178296380843e+00
	0.000000000000000e+00

 134	1.146555814409321e-08
	1.169122217685690e+00
	1.651188663633933e+00
	0.000000000000000e+00

 135	1.156555814409321e-08
	1.230011937729003e+00
	1.651199030886976e+00
	0.000000000000000e+00

 136	1.166555814409321e-08
	1.283846203837812e+00
	1.651209398139972e+00
	0.000000000000000e+00

 137	1.176555814409321e-08
	1.331339386789044e+00
	1.651219765392920e+00
	0.000000000000000e+00

 138	1.186555814409320e-08
	1.373146234704330e+00
	1.651230132645820e+00
	0.000000000000000e+00

 139	1.196555814409320e-08
	1.409847737388747e+00
	1.651240499898671e+00
	0.000000000000000e+00

 140	1.206555814409320e-08
	1.441986252905485e+00
	1.651250867151473e+00
	0.000000000000000e+00

 141	1.216555814409320e-08
	1.470058158708626e+00
	1.651261234404226e+00
	0.000000000000000e+00

 142	1.226555814409320e-08
	1.494529710445814e+00
	1.651271601656930e+00
	0.000000000000000e+00

 143	1.236555814409320e-08
	1.515819709576196e+00
	1.651281968909583e+00
	0.000000000000000e+00

 144	1.246555814409320e-08
	1.534314365836911e+00
	1.651292336162185e+00
	0.000000000000000e+00

 145	1.256555814409320e-08
	1.550355280965205e+00
	1.651302703414736e+00
	0.000000000000000e+00

 146	1.266555814409320e-08
	1.564252560874036e+00
	1.651313070667236e+00
	0.000000000000000e+00

 147	1.276555814409320e-08
	1.576277343924374e+00
	1.651323437919684e+00
	0.000000000000000e+00

 148	1.286555814409320e-08
	1.586673485016798e+00
	1.651333805172080e+00
	0.000000000000000e+00

 149	1.296555814409320e-08
	1.595652452792722e+00
	1.651344172424423e+00
	0.000000000000000e+00

 150	1.306555814409320e-08
	1.603403054184774e+00
	1.651354539676713e+00
	0.000000000000000e+00

 151	1.316555814409320e-08
	1.610088006885143e+00
	1.651364906928950e+00
	0.000000000000000e+00

 152	1.326555814409319e-08
	1.615851647178996e+00
	1.651375274181133e+00
	0.000000000000000e+00

 153	1.336555814409319e-08
	1.620818019944204e+00
	1.651385641433261e+00
	0.000000000000000e+00

 154	1.346555814409319e-08
	1.625096379558595e+00
	1.651396008685335e+00
	0.000000000000000e+00

 155	1.356555814409319e-08
	1.628780461003390e+00
	1.651406375937353e+00
	0.000000000000000e+00

 156	1.366555814409319e-08
	1.631952400138754e+00
	1.651416743189317e+00
	0.000000000000000e+00

 157	1.376555814409319e-08
	1.634682601353421e+00
	1.651427110441224e+00
	0.000000000000000e+00

 158	1.386555814409319e-08
	1.637032433007070e+00
	1.651437477693075e+00
	0.000000000000000e+00

 159	1.396555814409319e-08
	1.639054669921611e+00
	1.651447844944869e+00
	0.000000000000000e+00

 160	1.406555814409319e-08
	1.640794845330162e+00
	1.651458212196606e+00
	0.000000000000000e+00

 161	1.416555814409319e-08
	1.642292489158780e+00
	1.651468579448285e+00
	0.000000000000000e+00

 162	1.426555814409319e-08
	1.643581189649068e+00
	1.651478946699906e+00
	0.000000000000000e+00

 163	1.436555814409319e-08
	1.644690577564778e+00
	1.651489313951469e+00
	0.000000000000000e+00

 164	1.446555814409319e-08
	1.645645277559189e+00
	1.651499681202974e+00
	0.000000000000000e+00

 165	1.456555814409318e-08
	1.646467558022596e+00
	1.651510048454419e+00
	0.000000000000000e+00

 166	1.466555814409318e-08
	1.647175340063221e+00
	1.651520415705804e+00
	0.000000000000000e+00

 167	1.476555814409318e-08
	1.647785436467871e+00
	1.651530782957130e+00
	0.000000000000000e+00

 168	1.486555814409318e-08
	1.648310767861101e+00
	1.651541150208394e+00
	0.000000000000000e+00

 169	1.496555814409318e-08
	1.648764116143457e+00
	1.651551517459598e+00
	0.000000000000000e+00

 170	1.506555814409318e-08
	1.649154676407854e+00
	1.651561884710741e+00
	0.000000000000000e+00

 171	1.516555814409318e-08
	1.649492259965392e+00
	1.651572251961823e+00
	0.000000000000000e+00

 172	1.526555814409319e-08
	1.649783289607547e+00
	1.651582619212842e+00
	0.000000000000000e+00

 173	1.536555814409319e-08
	1.650035390220779e+00
	1.651592986463798e+00
	0.000000000000000e+00

 174	1.546555814409319e-08
	1.650252922820280e+00
	1.651603353714692e+00
	0.000000000000000e+00

 175	1.556555814409319e-08
	1.650441910253917e+00
	1.651613720965522e+00
	0.000000000000000e+00

 176	1.566555814409319e-08
	1.650605172958955e+00
	1.651624088216289e+00
	0.000000000000000e+00

 177	1.576555814409319e-08
	1.650747557403616e+00
	1.651634455466992e+00
	0.000000000000000e+00

 178	1.586555814409319e-08
	1.650870750789209e+00
	1.651644822717630e+00
	0.000000000000000e+00

 179	1.596555814409319e-08
	1.650978726781136e+00
	1.651655189968203e+00
	0.000000000000000e+00

 180	1.606555814409319e-08
	1.651072333068738e+00
	1.651665557218711e+00
	0.000000000000000e+00

 181	1.616555814409319e-08
	1.651154903091960e+00
	1.651675924469153e+00
	0.000000000000000e+00

 182	1.626555814409319e-08
	1.651226661197132e+00
	1.651686291719529e+00
	0.000000000000000e+00

 183	1.636555814409320e-08
	1.651290471365748e+00
	1.651696658969838e+00
	0.000000000000000e+00

 184	1.646555814409320e-08
	1.651346094808495e+00
	1.651707026220080e+00
	0.000000000000000e+00

 185	1.656555814409320e-08
	1.651396051524496e+00
	1.651717393470255e+00
	0.000000000000000e+00

 186	1.666555814409320e-08
	1.651439758891824e+00
	1.651727760720363e+00
	0.000000000000000e+00

 187	1.676555814409320e-08
	1.651479484463463e+00
	1.651738127970402e+00
	0.000000000000000e+00

 188	1.686555814409320e-08
	1.651514390539167e+00
	1.651748495220372e+00
	0.000000000000000e+00

 189	1.696555814409320e-08
	1.651546559592165e+00
	1.651758862470273e+00
	0.000000000000000e+00

 190	1.706555814409320e-08
	1.651574964562351e+00
	1.651769229720105e+00
	0.000000000000000e+00

 191	1.716555814409320e-08
	1.651601551806361e+00
	1.651779596969867e+00
	0.000000000000000e+00

 192	1.726555814409320e-08
	1.651625154212781e+00
	1.651789964219559e+00
	0.000000000000000e+00

 193	1.736555814409320e-08
	1.651647618138497e+00
	1.651800331469180e+00
	0.000000000000000e+00

 194	1.746555814409321e-08
	1.651667672441297e+00
	1.651810698718730e+00
	0.000000000000000e+00

 195	1.756555814409321e-08
	1.651687090189166e+00
	1.651821065968208e+00
	0.000000000000000e+00

 196	1.766555814409321e-08
	1.651704522971308e+00
	1.651831433217615e+00
	0.000000000000000e+00

 197	1.776555814409321e-08
	1.651721690154941e+00
	1.651841800466950e+00
	0.000000000000000e+00

 198	1.786555814409321e-08
	1.651737185881676e+00
	1.651852167716211e+00
	0.000000000000000e+00

 199	1.796555814409321e-08
	1.651752690236538e+00
	1.651862534965399e+00
	0.000000000000000e+00

 200	1.806555814409321e-08
	1.651766754567387e+00
	1.651872902214514e+00
	0.000000000000000e+00

 201	1.816555814409321e-08
	1.651781030311811e+00
	1.651883269463556e+00
	0.000000000000000e+00

 202	1.826555814409321e-08
	1.651794036847152e+00
	1.651893636712522e+00
	0.000000000000000e+00

 203	1.836555814409321e-08
	1.651807404815831e+00
	1.651904003961414e+00
	0.000000000000000e+00

 204	1.846555814409321e-08
	1.651819629609131e+00
	1.651914371210231e+00
	0.000000000000000e+00

 205	1.856555814409322e-08
	1.651832326881503e+00
	1.651924738458972e+00
	0.000000000000000e+00

 206	1.866555814409322e-08
	1.651843973924554e+00
	1.651935105707637e+00
	0.000000000000000e+00

 207	1.876555814409322e-08
	1.651856175705744e+00
	1.651945472956226e+00
	0.000000000000000e+00

 208	1.886555814409322e-08
	1.651867395747955e+00
	1.651955840204738e+00
	0.000000000000000e+00

 209	1.896555814409322e-08
	1.651879231524489e+00
	1.651966207453173e+00
	0.000000000000000e+00

 210	1.906555814409322e-08
	1.651890135975933e+00
	1.651976574701530e+00
	0.000000000000000e+00

 211	1.916555814409322e-08
	1.651901701452449e+00
	1.651986941949809e+00
	0.000000000000000e+00

 212	1.926555814409322e-08
	1.651912372651746e+00
	1.651997309198010e+00
	0.000000000000000e+00

 213	1.936555814409322e-08
	1.651923738565839e+00
	1.652007676446132e+00
	0.000000000000000e+00

 214	1.946555814409322e-08
	1.651934237363623e+00
	1.652018043694174e+00
	0.000000000000000e+00

 215	1.956555814409322e-08
	1.651945455997551e+00
	1.652028410942137e+00
	0.000000000000000e+00

 216	1.966555814409323e-08
	1.651955827364127e+00
	1.652038778190020e+00
	0.000000000000000e+00

 217	1.976555814409323e-08
	1.651966937361762e+00
	1.652049145437823e+00
	0.000000000000000e+00

 218	1.986555814409323e-08
	1.651977214520579e+00
	1.652059512685544e+00
	0.000000000000000e+00

 219	1.996555814409323e-08
	1.651988244456197e+00
	1.652069879933184e+00
	0.000000000000000e+00

 220	2.001000000000000e-08
	1.651992565006927e+00
	1.652074487330416e+00
	0.000000000000000e+00

 221	2.001100000000000e-08
	1.652029592294669e+00
	1.652074591002891e+00
	3.299999999998283e-01

 222	2.001300000000000e-08
	1.652092505639888e+00
	1.652074798347843e+00
	9.899999999994850e-01

 223	2.001700000000000e-08
	1.652113235604662e+00
	1.652075213037745e+00
	2.309999999999890e+00

 224	2.002000000000000e-08
	1.652073968625990e+00
	1.652075524055172e+00
	3.300000000000000e+00

 225	2.002080000000000e-08
	1.652026694160101e+00
	1.652075606993152e+00
	3.300000000000000e+00

 226	2.002240000000000e-08
	1.651978320724590e+00
	1.652075772869113e+00
	3.300000000000000e+00

 227	2.002560000000000e-08
	1.651881601643194e+00
	1.652076104621035e+00
	3.300000000000000e+00

 228	2.003200000000000e-08
	1.651575100189913e+00
	1.652076768124878e+00
	3.300000000000000e+00

 229	2.004472770488940e-08
	1.650729493631838e+00
	1.652078087637550e+00
	3.300000000000000e+00

 230	2.006482986756424e-08
	1.649567871894410e+00
	1.652080171678512e+00
	3.300000000000000e+00

 231	2.008907310569202e-08
	1.648565575739308e+00
	1.652082685035013e+00
	3.300000000000000e+00

 232	2.013118787409808e-08
	1.646953463916863e+00
	1.652087051177280e+00
	3.300000000000000e+00

 233	2.018029303881433e-08
	1.645700349236328e+00
	1.652092142031213e+00
	3.300000000000000e+00

 234	2.024400193282552e-08
	1.645656188537294e+00
	1.652098746889869e+00
	3.300000000000000e+00

 235	2.034400193282552e-08
	1.647931034543670e+00
	1.652109114137198e+00
	3.300000000000000e+00

 236	2.042341524023238e-08
	1.649657729913820e+00
	1.652117347111129e+00
	3.300000000000000e+00

 237	2.051306375942528e-08
	1.650410823270107e+00
	1.652126641194710e+00
	3.300000000000000e+00

 238	2.061219997905526e-08
	1.650554971005400e+00
	1.652136918891569e+00
	3.300000000000000e+00

 239	2.071219997905527e-08
	1.650567456211583e+00
	1.652147286138589e+00
	3.300000000000000e+00

 240	2.081219997905527e-08
	1.650571491002294e+00
	1.652157653385524e+00
	3.300000000000000e+00

 241	2.091219997905527e-08
	1.650569369717521e+00
	1.652168020632375e+00
	3.300000000000000e+00

 242	2.101219997905527e-08
	1.650571309503190e+00
	1.652178387879139e+00
	3.300000000000000e+00

 243	2.111219997905527e-08
	1.650569201819847e+00
	1.652188755125818e+00
	3.300000000000000e+00

 244	2.121219997905527e-08
	1.650570923690472e+00
	1.652199122372410e+00
	3.300000000000000e+00

 245	2.131219997905527e-08
	1.650568955081653e+00
	1.652209489618915e+00
	3.300000000000000e+00

 246	2.141219997905527e-08
	1.650570568340408e+00
	1.652219856865333e+00
	3.300000000000000e+00

 247	2.151219997905527e-08
	1.650568682753094e+00
	1.652230224111664e+00
	3.300000000000000e+00

 248	2.161219997905527e-08
	1.650570231095624e+00
	1.652240591357906e+00
	3.300000000000000e+00

 249	2.171219997905527e-08
	1.650568397295197e+00
	1.652250958604060e+00
	3.300000000000000e+00

 250	2.181219997905528e-08
	1.650569903523475e+00
	1.652261325850126e+00
	3.300000000000000e+00

 251	2.191219997905528e-08
	1.650568104682990e+00
	1.652271693096101e+00
	3.300000000000000e+00

 252	2.201219997905528e-08
	1.650569581430243e+00
	1.652282060341988e+00
	3.300000000000000e+00

 253	2.211219997905528e-08
	1.650567807881293e+00
	1.652292427587784e+00
	3.300000000000000e+00

 254	2.221219997905528e-08
	1.650569262698105e+00
	1.652302794833489e+00
	3.300000000000000e+00

 255	2.231219997905528e-08
	1.650567508420143e+00
	1.652313162079104e+00
	3.300000000000000e+00

 256	2.241219997905528e-08
	1.650568946202925e+00
	1.652323529324627e+00
	3.300000000000000e+00

 257	2.251219997905528e-08
	1.650567207137440e+00
	1.652333896570059e+00
	3.300000000000000e+00

 258	2.261219997905528e-08
	1.650568631305570e+00
	1.652344263815398e+00
	3.300000000000000e+00

 259	2.271219997905528e-08
	1.650566904529345e+00
	1.652354631060646e+00
	3.300000000000000e+00

 260	2.281219997905528e-08
	1.650568317613498e+00
	1.652364998305800e+00
	3.300000000000000e+00

 261	2.291219997905529e-08
	1.650566600912930e+00
	1.652375365550860e+00
	3.300000000000000e+00

 262	2.301219997905529e-08
	1.650568004863601e+00
	1.652385732795827e+00
	3.300000000000000e+00

 263	2.311219997905529e-08
	1.650566296506562e+00
	1.652396100040700e+00
	3.300000000000000e+00

 264	2.321219997905529e-08
	1.650567692869646e+00
	1.652406467285478e+00
	3.300000000000000e+00

 265	2.331219997905529e-08
	1.650565991760577e+00
	1.652416834530161e+00
	3.300000000000000e+00

 266	2.341219997905529e-08
	1.650567381811566e+00
	1.652427201774749e+00
	3.300000000000000e+00

 267	2.351219997905529e-08
	1.650565685904737e+00
	1.652437569019240e+00
	3.300000000000000e+00

 268	2.361219997905529e-08
	1.650567070515769e+00
	1.652447936263636e+00
	3.300000000000000e+00

 269	2.371219997905529e-08
	1.650565379735059e+00
	1.652458303507935e+00
	3.300000000000000e+00

 270	2.381219997905529e-08
	1.650566760962721e+00
	1.652468670752137e+00
	3.300000000000000e+00

 271	2.391219997905529e-08
	1.650565073712215e+00
	1.652479037996241e+00
	3.300000000000000e+00

 272	2.401219997905529e-08
	1.650566450398421e+00
	1.652489405240248e+00
	3.300000000000000e+00

 273	2.411219997905530e-08
	1.650564766835901e+00
	1.652499772484156e+00
	3.300000000000000e+00

 274	2.421219997905530e-08
	1.650566139735107e+00
	1.652510139727966e+00
	3.300000000000000e+00

 275	2.431219997905530e-08
	1.650564458977897e+00
	1.652520506971676e+00
	3.300000000000000e+00

 276	2.441219997905530e-08
	1.650565830341030e+00
	1.652530874215287e+00
	3.300000000000000e+00

 277	2.451219997905530e-08
	1.650564151947603e+00
	1.652541241458798e+00
	3.300000000000000e+00

 278	2.461219997905530e-08
	1.650565521430449e+00
	1.652551608702209e+00
	3.300000000000000e+00

 279	2.471219997905530e-08
	1.650563845143665e+00
	1.652561975945519e+00
	3.300000000000000e+00

 280	2.481219997905530e-08
	1.650565212342862e+00
	1.652572343188728e+00
	3.300000000000000e+00

 281	2.491219997905530e-08
	1.650563537905005e+00
	1.652582710431836e+00
	3.300000000000000e+00

 282	2.501219997905530e-08
	1.650564903405294e+00
	1.652593077674841e+00
	3.300000000000000e+00

 283	2.511219997905530e-08
	1.650563231605570e+00
	1.652603444917744e+00
	3.300000000000000e+00

 284	2.521219997905531e-08
	1.650564595577153e+00
	1.652613812160544e+00
	3.300000000000000e+00

 285	2.531219997905531e-08
	1.650562924221586e+00
	1.652624179403241e+00
	3.300000000000000e+00

 286	2.541219997905531e-08
	1.650564286888531e+00
	1.652634546645835e+00
	3.300000000000000e+00

 287	2.551219997905531e-08
	1.650562616826833e+00
	1.652644913888324e+00
	3.300000000000000e+00

 288	2.561219997905531e-08
	1.650563978288071e+00
	1.652655281130709e+00
	3.300000000000000e+00

 289	2.571219997905531e-08
	1.650562309393403e+00
	1.652665648372989e+00
	3.300000000000000e+00

 290	2.581219997905531e-08
	1.650563669758073e+00
	1.652676015615164e+00
	3.300000000000000e+00

 291	2.591219997905531e-08
	1.650562001931651e+00
	1.652686382857234e+00
	3.300000000000000e+00

 292	2.601219997905531e-08
	1.650563361294986e+00
	1.652696750099197e+00
	3.300000000000000e+00

 293	2.611219997905531e-08
	1.650561694451484e+00
	1.652707117341054e+00
	3.300000000000000e+00

 294	2.621219997905531e-08
	1.650563052910825e+00
	1.652717484582804e+00
	3.300000000000000e+00

 295	2.631219997905532e-08
	1.650561386962184e+00
	1.652727851824446e+00
	3.300000000000000e+00

 296	2.641219997905532e-08
	1.650562744576000e+00
	1.652738219065981e+00
	3.300000000000000e+00

 297	2.651219997905532e-08
	1.650561079469956e+00
	1.652748586307408e+00
	3.300000000000000e+00

 298	2.661219997905532e-08
	1.650562436287488e+00
	1.652758953548726e+00
	3.300000000000000e+00

 299	2.671219997905532e-08
	1.650560771980387e+00
	1.652769320789936e+00
	3.300000000000000e+00

 300	2.681219997905532e-08
	1.650562128042632e+00
	1.652779688031036e+00
	3.300000000000000e+00

 301	2.691219997905532e-08
	1.650560464524275e+00
	1.652790055272026e+00
	3.300000000000000e+00

 302	2.701219997905532e-08
	1.650561819838472e+00
	1.652800422512906e+00
	3.300000000000000e+00

 303	2.711219997905532e-08
	1.650560157100091e+00
	1.652810789753676e+00
	3.300000000000000e+00

 304	2.721219997905532e-08
	1.650561511672352e+00
	1.652821156994335e+00
	3.300000000000000e+00

 305	2.731219997905532e-08
	1.650559849682395e+00
	1.652831524234882e+00
	3.300000000000000e+00

 306	2.741219997905533e-08
	1.650561203543650e+00
	1.652841891475318e+00
	3.300000000000000e+00

 307	2.751219997905533e-08
	1.650559542274392e+00