Title: * spice3 file created from 8_bit_dac_tx_buffer.ext - technology: sky130a
Date: Sun Jul  9 19:53:35  2023
Plotname: Transient Analysis
Flags: real
No. Variables: 4
No. Points: 30314
Variables:
	0	time	time
	1	v(d0)	voltage
	2	v(vout)	voltage
	3	v(vout_buf)	voltage
Values:
 0	6.250000000000000e-11
	0.000000000000000e+00
	2.019832959247268e+00
	2.232255046043039e+00

 1	6.397028859824588e-11
	0.000000000000000e+00
	2.015568961026052e+00
	2.231546087127751e+00

 2	6.691086579473763e-11
	0.000000000000000e+00
	2.006760630166342e+00
	2.229589020366328e+00

 3	7.279202018772111e-11
	0.000000000000000e+00
	1.991591146489796e+00
	2.226428706540680e+00

 4	8.455432897368809e-11
	0.000000000000000e+00
	1.969774874280298e+00
	2.221978392553916e+00

 5	1.080789465456220e-10
	0.000000000000000e+00
	1.951142942632034e+00
	2.218003198767579e+00

 6	1.551281816894899e-10
	0.000000000000000e+00
	1.975279357203033e+00
	2.227852746091332e+00

 7	2.403964453655680e-10
	0.000000000000000e+00
	2.019479712016389e+00
	2.266522320627324e+00

 8	3.485570199900909e-10
	0.000000000000000e+00
	1.906556987272152e+00
	2.245926725009479e+00

 9	4.715655973356064e-10
	0.000000000000000e+00
	1.750904337881932e+00
	2.196221583059530e+00

 10	6.160220138657437e-10
	0.000000000000000e+00
	1.600620092753777e+00
	2.198459167880733e+00

 11	8.365702552202269e-10
	0.000000000000000e+00
	1.291131482074914e+00
	2.210118314361779e+00

 12	1.055982147325649e-09
	0.000000000000000e+00
	9.634356509487243e-01
	1.930899407772000e+00

 13	1.424453372746837e-09
	0.000000000000000e+00
	4.854543399673737e-01
	7.192230233341287e-01

 14	1.685472519417309e-09
	0.000000000000000e+00
	2.768892850899751e-01
	9.219048872944374e-02

 15	2.029453872967294e-09
	0.000000000000000e+00
	1.536153900063610e-01
	-2.777828189478243e-02

 16	2.413183002190074e-09
	0.000000000000000e+00
	9.497688047674016e-02
	1.128652309328881e-02

 17	2.823668345339485e-09
	0.000000000000000e+00
	4.654167141136084e-02
	-2.364319007636468e-03

 18	3.644639031638306e-09
	0.000000000000000e+00
	1.441822915528522e-02
	8.476844117272892e-03

 19	5.153054172311984e-09
	0.000000000000000e+00
	-2.521277896392921e-03
	2.926933281242978e-03

 20	7.922391583948425e-09
	0.000000000000000e+00
	1.969887599074997e-03
	7.196293650993321e-03

 21	1.148214820240577e-08
	0.000000000000000e+00
	-1.712327729255669e-03
	3.999763637131684e-03

 22	1.860166143932047e-08
	0.000000000000000e+00
	1.696768122709367e-03
	9.325423691807454e-03

 23	3.190092420917042e-08
	0.000000000000000e+00
	-1.624301768553720e-03
	8.096151770040900e-03

 24	5.000000000000000e-08
	0.000000000000000e+00
	1.614241350039514e-03
	1.219416873916957e-02

 25	5.210564616355424e-08
	0.000000000000000e+00
	4.748085386149165e-05
	1.053138724963189e-02

 26	5.631693849066273e-08
	0.000000000000000e+00
	-3.045884814812087e-05
	1.051267919488232e-02

 27	6.473952314487972e-08
	0.000000000000000e+00
	3.056765322142567e-05
	1.059411087443549e-02

 28	8.158469245331368e-08
	0.000000000000000e+00
	-2.569784805123713e-05
	1.056575766155394e-02

 29	1.152750310701816e-07
	0.000000000000000e+00
	2.805627705185582e-05
	1.061640974685753e-02

 30	1.652750310701816e-07
	0.000000000000000e+00
	-2.463013941466183e-05
	1.056722202054668e-02

 31	2.152750310701816e-07
	0.000000000000000e+00
	2.721145305090310e-05
	1.061616587162524e-02

 32	2.652750310701816e-07
	0.000000000000000e+00
	-2.382715266616723e-05
	1.056744743774572e-02

 33	3.152750310701816e-07
	0.000000000000000e+00
	2.644518670374557e-05
	1.061608909707784e-02

 34	3.652750310701816e-07
	0.000000000000000e+00
	-2.309524006572384e-05
	1.056750248643388e-02

 35	4.152750310701816e-07
	0.000000000000000e+00
	2.574561544300772e-05
	1.061604318415036e-02

 36	4.652750310701816e-07
	0.000000000000000e+00
	-2.242676213461275e-05
	1.056754807956210e-02

 37	5.152750310701817e-07
	0.000000000000000e+00
	2.510626762014964e-05
	1.061599729167176e-02

 38	5.652750310701816e-07
	0.000000000000000e+00
	-2.181540677577331e-05
	1.056759749026953e-02

 39	6.152750310701816e-07
	0.000000000000000e+00
	2.452108560791147e-05
	1.061594616455878e-02

 40	6.652750310701815e-07
	0.000000000000000e+00
	-2.125540150335067e-05
	1.056765261128546e-02

 41	7.152750310701815e-07
	0.000000000000000e+00
	2.398458740420516e-05
	1.061588938048116e-02

 42	7.652750310701814e-07
	0.000000000000000e+00
	-2.074154717634348e-05
	1.056771325074673e-02

 43	8.152750310701813e-07
	0.000000000000000e+00
	2.349184609450029e-05
	1.061582737277448e-02

 44	8.652750310701813e-07
	0.000000000000000e+00
	-2.026917577343249e-05
	1.056777888440091e-02

 45	9.152750310701812e-07
	0.000000000000000e+00
	2.303845211152503e-05
	1.061576068326810e-02

 46	9.652750310701812e-07
	0.000000000000000e+00
	-1.983411030638292e-05
	1.056784897886587e-02

 47	1.000000000000000e-06
	0.000000000000000e+00
	2.253843517500268e-05
	1.061569118771843e-02

 48	1.000100000000000e-06
	1.800000000000135e-01
	8.920647372297522e-06
	1.059723607666629e-02

 49	1.000300000000000e-06
	5.400000000000406e-01
	1.300439651779966e-06
	1.058815953827386e-02

 50	1.000700000000000e-06
	1.260000000000095e+00
	-1.135705054550601e-05
	1.059389742170102e-02

 51	1.001000000000000e-06
	1.800000000000000e+00
	-6.903092750828053e-04
	1.057742243231708e-02

 52	1.001037798070112e-06
	1.800000000000000e+00
	-1.101250122623819e-03
	1.056605754213077e-02

 53	1.001113394210336e-06
	1.800000000000000e+00
	-2.954551767885239e-03
	1.050946018224079e-02

 54	1.001219584680762e-06
	1.800000000000000e+00
	-7.278211047615489e-03
	1.043919766541108e-02

 55	1.001338979180022e-06
	1.800000000000000e+00
	-7.309112277548794e-03
	1.060508947426143e-02

 56	1.001458759513411e-06
	1.800000000000000e+00
	-1.072181760583138e-03
	1.078201814232618e-02

 57	1.001585111436891e-06
	1.800000000000000e+00
	3.357365246208570e-03
	1.064439883565145e-02

 58	1.001728284388500e-06
	1.800000000000000e+00
	5.001897472403248e-03
	1.051411996798376e-02

 59	1.001870935739755e-06
	1.800000000000000e+00
	6.779065305860391e-03
	1.053564118669953e-02

 60	1.002021008664022e-06
	1.800000000000000e+00
	7.922253153063299e-03
	1.052718514955578e-02

 61	1.002189455917165e-06
	1.800000000000000e+00
	9.033101367780183e-03
	1.056806770100210e-02

 62	1.002350412061487e-06
	1.800000000000000e+00
	9.920169979638831e-03
	1.062071170776646e-02

 63	1.002521965213508e-06
	1.800000000000000e+00
	1.055064176081363e-02
	1.068812336690429e-02

 64	1.002709752843417e-06
	1.800000000000000e+00
	1.116925277426653e-02
	1.078698335284110e-02

 65	1.002884195296802e-06
	1.800000000000000e+00
	1.155592266697463e-02
	1.088317178714761e-02

 66	1.003071314190043e-06
	1.800000000000000e+00
	1.190248983164330e-02
	1.100115168909971e-02

 67	1.003266252198684e-06
	1.800000000000000e+00
	1.216091901909784e-02
	1.112905049919505e-02

 68	1.003471674481206e-06
	1.800000000000000e+00
	1.241805898034994e-02
	1.127272087247969e-02

 69	1.003710139781565e-06
	1.800000000000000e+00
	1.259513563821293e-02
	1.144148697307996e-02

 70	1.003928556640262e-06
	1.800000000000000e+00
	1.273554489076593e-02
	1.160248003120168e-02

 71	1.004151121034264e-06
	1.800000000000000e+00
	1.280152452394277e-02
	1.176584544686070e-02

 72	1.004368627782767e-06
	1.800000000000000e+00
	1.283958730027236e-02
	1.192806167312576e-02

 73	1.004577831663971e-06
	1.800000000000000e+00
	1.285776731772479e-02
	1.208342112537225e-02

 74	1.004793040909371e-06
	1.800000000000000e+00
	1.286469616993938e-02
	1.224242700105195e-02

 75	1.005010890615254e-06
	1.800000000000000e+00
	1.286519557430294e-02
	1.240212689538545e-02

 76	1.005240628011651e-06
	1.800000000000000e+00
	1.287508074367142e-02
	1.256875157683987e-02

 77	1.005471258904731e-06
	1.800000000000000e+00
	1.288561358664473e-02
	1.273353618252310e-02

 78	1.005713512060967e-06
	1.800000000000000e+00
	1.288115068443107e-02
	1.290378837895289e-02

 79	1.005956080462673e-06
	1.800000000000000e+00
	1.289442280115828e-02
	1.307243049148206e-02

 80	1.006206979292309e-06
	1.800000000000000e+00
	1.290351818776650e-02
	1.324297562984764e-02

 81	1.006445707911955e-06
	1.800000000000000e+00
	1.290892801734965e-02
	1.340288023445554e-02

 82	1.006682171623144e-06
	1.800000000000000e+00
	1.291466450465244e-02
	1.355849089677073e-02

 83	1.006908267665649e-06
	1.800000000000000e+00
	1.291437810307730e-02
	1.370459907659134e-02

 84	1.007131215841000e-06
	1.800000000000000e+00
	1.291483918592636e-02
	1.384641211085774e-02

 85	1.007348469697038e-06
	1.800000000000000e+00
	1.291315887684760e-02
	1.398203233970578e-02

 86	1.007565523673533e-06
	1.800000000000000e+00
	1.291177997674364e-02
	1.411525746553546e-02

 87	1.007783644775706e-06
	1.800000000000000e+00
	1.291158134255573e-02
	1.424667788580653e-02

 88	1.008008242769417e-06
	1.800000000000000e+00
	1.290977007952763e-02
	1.437940466410949e-02

 89	1.008238300767400e-06
	1.800000000000000e+00
	1.291065300355943e-02
	1.451280755231591e-02

 90	1.008471582752808e-06
	1.800000000000000e+00
	1.290862114303334e-02
	1.464516116850764e-02

 91	1.008710874396356e-06
	1.800000000000000e+00
	1.290931211754763e-02
	1.477826388242734e-02

 92	1.008952913318444e-06
	1.800000000000000e+00
	1.291046053267448e-02
	1.490984425759992e-02

 93	1.009199972969415e-06
	1.800000000000000e+00
	1.291206028582296e-02
	1.504120348618116e-02

 94	1.009440857374301e-06
	1.800000000000000e+00
	1.290790189063994e-02
	1.516626250599507e-02

 95	1.009680997090753e-06
	1.800000000000000e+00
	1.290669558157692e-02
	1.528835543684030e-02

 96	1.009914980836777e-06
	1.800000000000000e+00
	1.290488334921107e-02
	1.540443662255983e-02

 97	1.010148432076566e-06
	1.800000000000000e+00
	1.290315379043137e-02
	1.551769630466866e-02

 98	1.010380281241989e-06
	1.800000000000000e+00
	1.290100020421383e-02
	1.562757195895218e-02

 99	1.010616395147959e-06
	1.800000000000000e+00
	1.289939262558223e-02
	1.573688319963762e-02

 100	1.010859169249851e-06
	1.800000000000000e+00
	1.289700783330097e-02
	1.584653286141720e-02

 101	1.011110307625599e-06
	1.800000000000000e+00
	1.289520112070048e-02
	1.595714332312600e-02

 102	1.011363936409980e-06
	1.800000000000000e+00
	1.289283591609301e-02
	1.606590907875532e-02

 103	1.011626809476164e-06
	1.800000000000000e+00
	1.289085518332018e-02
	1.617564213509148e-02

 104	1.011891821342228e-06
	1.800000000000000e+00
	1.288857960323197e-02
	1.628317104258334e-02

 105	1.012153706294358e-06
	1.800000000000000e+00
	1.288663301454132e-02
	1.638647762302968e-02

 106	1.012410750193298e-06
	1.800000000000000e+00
	1.288463292641747e-02
	1.648503862282285e-02

 107	1.012661539060163e-06
	1.800000000000000e+00
	1.288288574190564e-02
	1.657856849414713e-02

 108	1.012907148666363e-06
	1.800000000000000e+00
	1.288118668161459e-02
	1.666767969574503e-02

 109	1.013148455185142e-06
	1.800000000000000e+00
	1.287954230667976e-02
	1.675288675348912e-02

 110	1.013387764238618e-06
	1.800000000000000e+00
	1.287808858370619e-02
	1.683514326213375e-02

 111	1.013629100925379e-06
	1.800000000000000e+00
	1.287666496765854e-02
	1.691586750884523e-02

 112	1.013880259853153e-06
	1.800000000000000e+00
	1.287523880689041e-02
	1.699756048652864e-02

 113	1.014152703954260e-06
	1.800000000000000e+00
	1.287378888585503e-02
	1.708355920703232e-02

 114	1.014415216457979e-06
	1.800000000000000e+00
	1.287249070353304e-02
	1.716390686120567e-02

 115	1.014702910061127e-06
	1.800000000000000e+00
	1.287109530961046e-02
	1.724919456062834e-02

 116	1.014983007531407e-06
	1.800000000000000e+00
	1.286988830255403e-02
	1.732952549849450e-02

 117	1.015279532998183e-06
	1.800000000000000e+00
	1.286859367653949e-02
	1.741173014299700e-02

 118	1.015569098901453e-06
	1.800000000000000e+00
	1.286749401725690e-02
	1.748927670358461e-02

 119	1.015853419966362e-06
	1.800000000000000e+00
	1.286638040477623e-02
	1.756285604021277e-02

 120	1.016128436756711e-06
	1.800000000000000e+00
	1.286545119741834e-02
	1.763169204126286e-02

 121	1.016396758291952e-06
	1.800000000000000e+00
	1.286450451283174e-02
	1.769668626946432e-02

 122	1.016659476994045e-06
	1.800000000000000e+00
	1.286370705517389e-02
	1.775832018199763e-02

 123	1.016917295026097e-06
	1.800000000000000e+00
	1.286288413820610e-02
	1.781691654183201e-02

 124	1.017167957150857e-06
	1.800000000000000e+00
	1.286219874489659e-02
	1.787215322304831e-02

 125	1.017521113680969e-06
	1.800000000000000e+00
	1.286119913868977e-02
	1.794715199372546e-02

 126	1.017843906459574e-06
	1.800000000000000e+00
	1.286041311560509e-02
	1.801291234229430e-02

 127	1.018357539216838e-06
	1.800000000000000e+00
	1.285917432202849e-02
	1.811229357153665e-02

 128	1.019008441365391e-06
	1.800000000000000e+00
	1.285785798341377e-02
	1.822945882865304e-02

 129	1.019959634621125e-06
	1.800000000000000e+00
	1.285616404680155e-02
	1.838440042467706e-02

 130	1.021450911243087e-06
	1.800000000000000e+00
	1.285429058640375e-02
	1.859288036627299e-02

 131	1.023716653024635e-06
	1.800000000000000e+00
	1.285283754619911e-02
	1.884272751979331e-02

 132	1.028248136587731e-06
	1.800000000000000e+00
	1.285417266537462e-02
	1.917120047147024e-02

 133	1.036392913643074e-06
	1.800000000000000e+00
	1.286239433243781e-02
	1.944042878826085e-02

 134	1.052682467753760e-06
	1.800000000000000e+00
	1.287779006417849e-02
	1.956359371870017e-02

 135	1.084055524836974e-06
	1.800000000000000e+00
	1.289004186114209e-02
	1.956884676720596e-02

 136	1.134055524836974e-06
	1.800000000000000e+00
	1.289255661751639e-02
	1.957539232309049e-02

 137	1.184055524836974e-06
	1.800000000000000e+00
	1.289235462391967e-02
	1.957315950094920e-02

 138	1.234055524836974e-06
	1.800000000000000e+00
	1.289241521640830e-02
	1.957430312532341e-02

 139	1.284055524836974e-06
	1.800000000000000e+00
	1.289235600944836e-02
	1.957367605613660e-02

 140	1.334055524836974e-06
	1.800000000000000e+00
	1.289241846410506e-02
	1.957402173066961e-02

 141	1.384055524836974e-06
	1.800000000000000e+00
	1.289235520336014e-02
	1.957383218275816e-02

 142	1.434055524836974e-06
	1.800000000000000e+00
	1.289241762498083e-02
	1.957393501413894e-02

 143	1.484055524836974e-06
	1.800000000000000e+00
	1.289235689264486e-02
	1.957388024539592e-02

 144	1.534055524836974e-06
	1.800000000000000e+00
	1.289241556503164e-02
	1.957390848692706e-02

 145	1.584055524836974e-06
	1.800000000000000e+00
	1.289235905158866e-02
	1.957389478142974e-02

 146	1.634055524836974e-06
	1.800000000000000e+00
	1.289241345627996e-02
	1.957390061883476e-02

 147	1.684055524836974e-06
	1.800000000000000e+00
	1.289236103332061e-02
	1.957389895136007e-02

 148	1.734055524836974e-06
	1.800000000000000e+00
	1.289241163693147e-02
	1.957389849084425e-02

 149	1.784055524836974e-06
	1.800000000000000e+00
	1.289236267919655e-02
	1.957389996077145e-02

 150	1.834055524836974e-06
	1.800000000000000e+00
	1.289241016269464e-02
	1.957389808637475e-02

 151	1.884055524836973e-06
	1.800000000000000e+00
	1.289236399111653e-02
	1.957390004561421e-02

 152	1.934055524836973e-06
	1.800000000000000e+00
	1.289240900081151e-02
	1.957389816383589e-02

 153	1.984055524836973e-06
	1.800000000000000e+00
	1.289236501693959e-02
	1.957389989221884e-02

 154	2.000000000000000e-06
	1.800000000000000e+00
	1.289240734508408e-02
	1.957389853444743e-02

 155	2.000100000000000e-06
	1.800000000000000e+00
	1.289249249727882e-02
	1.957390066770104e-02

 156	2.000300000000000e-06
	1.800000000000000e+00
	1.289252685827820e-02
	1.957389909226691e-02

 157	2.000700000000000e-06
	1.800000000000000e+00
	1.284739991044934e-02
	1.957306769874202e-02

 158	2.001000000000000e-06
	1.800000000000000e+00
	1.072586855635710e-02
	1.953068821849616e-02

 159	2.001037798436489e-06
	1.731962814319240e+00
	9.361101355100937e-03
	1.948840374329183e-02

 160	2.001113395309468e-06
	1.595888442956958e+00
	4.272582459385826e-03
	1.933835319377923e-02

 161	2.001211339178495e-06
	1.419589478709760e+00
	-3.059016444441076e-03
	1.928116817668809e-02

 162	2.001320463011418e-06
	1.223166579446775e+00
	1.194763076599490e-03
	1.970186174847917e-02

 163	2.001423049937677e-06
	1.038510112181384e+00
	1.288470841347827e-02
	1.989761955280913e-02

 164	2.001550330226109e-06
	8.094055930042632e-01
	1.944346108915729e-02
	1.950619151565948e-02

 165	2.001677856195024e-06
	5.798588489563758e-01
	2.205759702175086e-02
	1.934531545593529e-02

 166	2.001812487584248e-06
	3.375223483537839e-01
	2.537363013259289e-02
	1.938992994905021e-02

 167	2.001962912533875e-06
	6.675743902514575e-02
	2.792862216984343e-02
	1.940603159140246e-02

 168	2.002000000000000e-06
	0.000000000000000e+00
	2.885632194555077e-02
	1.944814084555219e-02

 169	2.002014450488293e-06
	0.000000000000000e+00
	2.928072840310809e-02
	1.946590792284759e-02

 170	2.002043351464880e-06
	0.000000000000000e+00
	3.021011451636687e-02
	1.950322463098323e-02

 171	2.002101153418054e-06
	0.000000000000000e+00
	3.264215424275537e-02
	1.959044935082022e-02

 172	2.002166305515427e-06
	0.000000000000000e+00
	3.522618532081484e-02
	1.965329265833921e-02

 173	2.002239509112350e-06
	0.000000000000000e+00
	3.537552339444295e-02
	1.961130555211299e-02

 174	2.002342432781100e-06
	0.000000000000000e+00
	3.213301848456647e-02
	1.959833711989082e-02

 175	2.002447271611718e-06
	0.000000000000000e+00
	3.024219085749114e-02
	1.982413047617502e-02

 176	2.002573739153328e-06
	0.000000000000000e+00
	2.980872572819411e-02
	2.009406031606195e-02

 177	2.002699758133185e-06
	0.000000000000000e+00
	2.874369207649667e-02
	2.026157508449243e-02

 178	2.002828126265850e-06
	0.000000000000000e+00
	2.823848551709885e-02
	2.048224049460265e-02

 179	2.002961234818778e-06
	0.000000000000000e+00
	2.791273165660893e-02
	2.068570805798063e-02

 180	2.003113455273847e-06
	0.000000000000000e+00
	2.736294182194880e-02
	2.089726012395752e-02

 181	2.003265114009394e-06
	0.000000000000000e+00
	2.708618052052177e-02
	2.111687618576873e-02

 182	2.003409781350495e-06
	0.000000000000000e+00
	2.675327014282610e-02
	2.130399008712434e-02

 183	2.003559607195950e-06
	0.000000000000000e+00
	2.658197808061369e-02
	2.150010464397703e-02

 184	2.003721339704017e-06
	0.000000000000000e+00
	2.641138781157214e-02
	2.169633576516719e-02

 185	2.003882080193000e-06
	0.000000000000000e+00
	2.626633727573266e-02
	2.188479323755967e-02

 186	2.004048578180756e-06
	0.000000000000000e+00
	2.614821695651736e-02
	2.207322255420156e-02

 187	2.004208873466128e-06
	0.000000000000000e+00
	2.606676398939889e-02
	2.224790128440435e-02

 188	2.004375234250716e-06
	0.000000000000000e+00
	2.605388631391473e-02
	2.242467843811540e-02

 189	2.004529208481321e-06
	0.000000000000000e+00
	2.596374692422298e-02
	2.257895055832996e-02

 190	2.004697519528452e-06
	0.000000000000000e+00
	2.592127910546044e-02
	2.274837035129984e-02

 191	2.004867876211568e-06
	0.000000000000000e+00
	2.591874975664441e-02
	2.291347086256722e-02

 192	2.005039474382990e-06
	0.000000000000000e+00
	2.589021519650860e-02
	2.307374237368676e-02

 193	2.005230582387548e-06
	0.000000000000000e+00
	2.588031036881187e-02
	2.324968028301336e-02

 194	2.005419090419634e-06
	0.000000000000000e+00
	2.587288721005244e-02
	2.341756370206870e-02

 195	2.005624675928023e-06
	0.000000000000000e+00
	2.586317627886144e-02
	2.359615432383457e-02

 196	2.005815357107347e-06
	0.000000000000000e+00
	2.586148503958297e-02
	2.375771211978821e-02

 197	2.006015224632621e-06
	0.000000000000000e+00
	2.584635895548675e-02
	2.392222150634998e-02

 198	2.006217834241379e-06
	0.000000000000000e+00
	2.583579172193147e-02
	2.408534732098165e-02

 199	2.006411000742432e-06
	0.000000000000000e+00
	2.583875203518045e-02
	2.423686756471063e-02

 200	2.006602174935063e-06
	0.000000000000000e+00
	2.583998575504025e-02
	2.438271036006805e-02

 201	2.006784667984706e-06
	0.000000000000000e+00
	2.583571277148148e-02
	2.451866840625285e-02

 202	2.006964420222229e-06
	0.000000000000000e+00
	2.583711577349178e-02
	2.464977767605194e-02

 203	2.007140506885536e-06
	0.000000000000000e+00
	2.583420809085924e-02
	2.477492917290314e-02

 204	2.007317046961736e-06
	0.000000000000000e+00
	2.584169529189749e-02
	2.489804519267981e-02

 205	2.007499220001044e-06
	0.000000000000000e+00
	2.584486506509609e-02
	2.502162523623542e-02

 206	2.007685859576203e-06
	0.000000000000000e+00
	2.583655192424075e-02
	2.514522787148232e-02

 207	2.007866380571276e-06
	0.000000000000000e+00
	2.583657187445077e-02
	2.526247922230471e-02

 208	2.008058735767037e-06
	0.000000000000000e+00
	2.583574643526559e-02
	2.538387538408760e-02

 209	2.008248903243601e-06
	0.000000000000000e+00
	2.583556268846374e-02
	2.550099621542244e-02

 210	2.008447877779825e-06
	0.000000000000000e+00
	2.583445422070417e-02
	2.562028097170820e-02

 211	2.008646298660929e-06
	0.000000000000000e+00
	2.583428341508953e-02
	2.573611786268674e-02

 212	2.008848195905134e-06
	0.000000000000000e+00
	2.583325815799924e-02
	2.585073867603717e-02

 213	2.009037265398038e-06
	0.000000000000000e+00
	2.583315125125429e-02
	2.595527283254404e-02

 214	2.009246006542372e-06
	0.000000000000000e+00
	2.583287186763235e-02
	2.606750425511568e-02

 215	2.009446855078409e-06
	0.000000000000000e+00
	2.583388797109178e-02
	2.617249439680539e-02

 216	2.009659282444591e-06
	0.000000000000000e+00
	2.583301844262149e-02
	2.628028574691599e-02

 217	2.009863401072908e-06
	0.000000000000000e+00
	2.582855918250464e-02
	2.638085188642551e-02

 218	2.010067926227279e-06
	0.000000000000000e+00
	2.582724185702635e-02
	2.647889307831230e-02

 219	2.010264319454744e-06
	0.000000000000000e+00
	2.583002775656870e-02
	2.657030795809773e-02

 220	2.010458134107861e-06
	0.000000000000000e+00
	2.582959208845130e-02
	2.665785706078518e-02

 221	2.010647590454303e-06
	0.000000000000000e+00
	2.582883091067608e-02
	2.674125082480932e-02

 222	2.010835876542989e-06
	0.000000000000000e+00
	2.582952909423273e-02
	2.682190452793070e-02

 223	2.011026402680264e-06
	0.000000000000000e+00
	2.582904436246558e-02
	2.690122727190912e-02

 224	2.011224510038621e-06
	0.000000000000000e+00
	2.582905243053582e-02
	2.698147821694034e-02

 225	2.011429045951732e-06
	0.000000000000000e+00
	2.582887427745576e-02
	2.706188671434753e-02

 226	2.011618383959598e-06
	0.000000000000000e+00
	2.582876151032800e-02
	2.713421120648614e-02

 227	2.011823555285427e-06
	0.000000000000000e+00
	2.582862849745327e-02
	2.721033004156568e-02

 228	2.012029310066341e-06
	0.000000000000000e+00
	2.582839548902074e-02
	2.728437215607137e-02

 229	2.012241990229216e-06
	0.000000000000000e+00
	2.582808771540255e-02
	2.735856252970463e-02

 230	2.012459002103528e-06
	0.000000000000000e+00
	2.582762702673132e-02
	2.743186456105854e-02

 231	2.012678478859542e-06
	0.000000000000000e+00
	2.582709946137969e-02
	2.750360997026391e-02

 232	2.012900795115090e-06
	0.000000000000000e+00
	2.582643632721621e-02
	2.757389262825271e-02

 233	2.013119879913222e-06
	0.000000000000000e+00
	2.582569799711764e-02
	2.764087205725606e-02

 234	2.013337819896614e-06
	0.000000000000000e+00
	2.582494386200052e-02
	2.770531404651348e-02

 235	2.013549020644256e-06
	0.000000000000000e+00
	2.582400857136787e-02
	2.776573577937283e-02

 236	2.013741738876099e-06
	0.000000000000000e+00
	2.582317970528488e-02
	2.781918444442822e-02

 237	2.013950797181588e-06
	0.000000000000000e+00
	2.582242478445568e-02
	2.787539022745568e-02

 238	2.014172837285457e-06
	0.000000000000000e+00
	2.582145503551694e-02
	2.793311125222840e-02

 239	2.014406967410523e-06
	0.000000000000000e+00
	2.582035144240543e-02
	2.799185396044875e-02

 240	2.014640880191109e-06
	0.000000000000000e+00
	2.581944914150381e-02
	2.804843160919955e-02

 241	2.014880107022803e-06
	0.000000000000000e+00
	2.581837909021176e-02
	2.810417098441551e-02

 242	2.015121296615627e-06
	0.000000000000000e+00
	2.581743974158202e-02
	2.815828588586983e-02

 243	2.015362732367496e-06
	0.000000000000000e+00
	2.581648423380476e-02
	2.821041617069353e-02

 244	2.015606801109805e-06
	0.000000000000000e+00
	2.581556950435369e-02
	2.826112390018795e-02

 245	2.015849763857769e-06
	0.000000000000000e+00
	2.581470831008277e-02
	2.830967795466141e-02

 246	2.016092507895654e-06
	0.000000000000000e+00
	2.581386808717409e-02
	2.835633944390496e-02

 247	2.016332828910118e-06
	0.000000000000000e+00
	2.581309161975164e-02
	2.840078148547154e-02

 248	2.016570241100073e-06
	0.000000000000000e+00
	2.581234547014079e-02
	2.844302932583648e-02

 249	2.016809089793531e-06
	0.000000000000000e+00
	2.581163195064084e-02
	2.848393394147922e-02

 250	2.017056599399088e-06
	0.000000000000000e+00
	2.581092700552065e-02
	2.852468810465819e-02

 251	2.017312002886256e-06
	0.000000000000000e+00
	2.581022517561219e-02
	2.856506477673545e-02

 252	2.017563420031501e-06
	0.000000000000000e+00
	2.580957543409412e-02
	2.860320887953721e-02

 253	2.017802886203517e-06
	0.000000000000000e+00
	2.580897387378912e-02
	2.863811663615589e-02

 254	2.018113208234323e-06
	0.000000000000000e+00
	2.580824656828752e-02
	2.868137574798219e-02

 255	2.018435187624500e-06
	0.000000000000000e+00
	2.580752692836870e-02
	2.872399943953459e-02

 256	2.018896759766718e-06
	0.000000000000000e+00
	2.580658513517856e-02
	2.878132117819412e-02

 257	2.019497835716432e-06
	0.000000000000000e+00
	2.580547648555264e-02
	2.884975027107231e-02

 258	2.020348580325437e-06
	0.000000000000000e+00
	2.580412589468166e-02
	2.893574941839329e-02

 259	2.021616348820301e-06
	0.000000000000000e+00
	2.580238221005216e-02
	2.904349441346090e-02

 260	2.023457965266261e-06
	0.000000000000000e+00
	2.579993898825282e-02
	2.916467209881864e-02

 261	2.026311154245258e-06
	0.000000000000000e+00
	2.579561984283273e-02
	2.929205380916097e-02

 262	2.031381131675836e-06
	0.000000000000000e+00
	2.578828001129986e-02
	2.940978115734177e-02

 263	2.040330443197003e-06
	0.000000000000000e+00
	2.578233500362388e-02
	2.947189241696059e-02

 264	2.058122863464567e-06
	0.000000000000000e+00
	2.578241563329645e-02
	2.947962677237968e-02

 265	2.093707703999695e-06
	0.000000000000000e+00
	2.578333003894701e-02
	2.947795174316215e-02

 266	2.143707703999695e-06
	0.000000000000000e+00
	2.578321010290600e-02
	2.947945754727293e-02

 267	2.193707703999695e-06
	0.000000000000000e+00
	2.578334329727711e-02
	2.947849768593313e-02

 268	2.243707703999695e-06
	0.000000000000000e+00
	2.578324251274632e-02
	2.947913797161811e-02

 269	2.293707703999695e-06
	0.000000000000000e+00
	2.578331838060076e-02
	2.947870840577876e-02

 270	2.343707703999695e-06
	0.000000000000000e+00
	2.578325981306343e-02
	2.947899716877062e-02

 271	2.393707703999695e-06
	0.000000000000000e+00
	2.578330625094149e-02
	2.947880256495164e-02

 272	2.443707703999695e-06
	0.000000000000000e+00
	2.578326848390508e-02
	2.947893418253364e-02

 273	2.493707703999695e-06
	0.000000000000000e+00
	2.578329989362679e-02
	2.947884471589860e-02

 274	2.543707703999695e-06
	0.000000000000000e+00
	2.578327326000919e-02
	2.947890593732810e-02

 275	2.593707703999694e-06
	0.000000000000000e+00
	2.578329619946615e-02
	2.947886367141285e-02

 276	2.643707703999694e-06
	0.000000000000000e+00
	2.578327620164438e-02
	2.947889318651639e-02

 277	2.693707703999694e-06
	0.000000000000000e+00
	2.578329379512290e-02
	2.947887227962076e-02

 278	2.743707703999694e-06
	0.000000000000000e+00
	2.578327821673460e-02
	2.947888734832296e-02

 279	2.793707703999694e-06
	0.000000000000000e+00
	2.578329207287309e-02
	2.947887626613077e-02

 280	2.843707703999694e-06
	0.000000000000000e+00
	2.578327971595209e-02
	2.947888460408298e-02

 281	2.893707703999694e-06
	0.000000000000000e+00
	2.578329075194072e-02
	2.947887817745345e-02

 282	2.943707703999694e-06
	0.000000000000000e+00
	2.578328089409465e-02
	2.947888325550966e-02

 283	2.993707703999694e-06
	0.000000000000000e+00
	2.578328969470086e-02
	2.947887914660000e-02

 284	3.000000000000000e-06
	7.623296525288703e-13
	2.578328415959679e-02
	2.947888145207817e-02

 285	3.000100000000000e-06
	1.800000000011570e-01
	2.578332969564624e-02
	2.947888265963886e-02

 286	3.000300000000000e-06
	5.400000000004217e-01
	2.578337697791983e-02
	2.947888248772930e-02

 287	3.000700000000000e-06
	1.260000000000476e+00
	2.576260372916919e-02
	2.947846225281625e-02

 288	3.001000000000000e-06
	1.800000000000000e+00
	2.487512481982040e-02
	2.945968807314468e-02

 289	3.001037798125172e-06
	1.800000000000000e+00
	2.437174149817191e-02
	2.944444780258983e-02

 290	3.001113394375515e-06
	1.800000000000000e+00
	2.221999102483274e-02
	2.937691659575689e-02

 291	3.001219611226446e-06
	1.800000000000000e+00
	1.714324773852163e-02
	2.928546818035946e-02

 292	3.001339043781159e-06
	1.800000000000000e+00
	1.606361823615703e-02
	2.942642122655715e-02

 293	3.001458878359892e-06
	1.800000000000000e+00
	2.130873397279747e-02
	2.957034809033560e-02

 294	3.001585222665487e-06
	1.800000000000000e+00
	2.538382445710128e-02
	2.940641677146786e-02

 295	3.001728383331650e-06
	1.800000000000000e+00
	2.780042560761737e-02
	2.926237629396675e-02

 296	3.001871063161962e-06
	1.800000000000000e+00
	3.031959827637912e-02
	2.924459702879147e-02

 297	3.002021148591425e-06
	1.800000000000000e+00
	3.179354184721360e-02
	2.920662043979044e-02

 298	3.002189610090828e-06
	1.800000000000000e+00
	3.336603247295176e-02
	2.925892108164931e-02

 299	3.002350539140312e-06
	1.800000000000000e+00
	3.449483510918260e-02
	2.932945734921097e-02

 300	3.002522102838958e-06
	1.800000000000000e+00
	3.539605416182726e-02
	2.944337202861792e-02

 301	3.002709863223920e-06
	1.800000000000000e+00
	3.628339159267159e-02
	2.960757910888340e-02

 302	3.002884302999712e-06
	1.800000000000000e+00
	3.678071211377162e-02
	2.977430300854720e-02

 303	3.003071435393266e-06
	1.800000000000000e+00
	3.724819215381089e-02
	2.998383584983579e-02

 304	3.003266361577316e-06
	1.800000000000000e+00
	3.759786826716186e-02
	3.021186790018562e-02

 305	3.003471820981667e-06
	1.800000000000000e+00
	3.800319699203675e-02
	3.046954060159139e-02

 306	3.003710258886457e-06
	1.800000000000000e+00
	3.831552584756035e-02
	3.077133569208036e-02

 307	3.003928781304937e-06